1
# CELL(abcABC):  188.97261   188.97261   188.97261    90.00000    90.00000    90.00000  Step:           0  Bead:       0 kinetic_cv{atomic_unit}  cell{atomic_unit}
       H  4.75022e-04  4.75022e-04  4.75022e-04
1
# CELL(abcABC):  188.97261   188.97261   188.97261    90.00000    90.00000    90.00000  Step:           5  Bead:       0 kinetic_cv{atomic_unit}  cell{atomic_unit}
       H  5.08449e-04  7.13034e-04  4.99114e-04
1
# CELL(abcABC):  188.97261   188.97261   188.97261    90.00000    90.00000    90.00000  Step:          10  Bead:       0 kinetic_cv{atomic_unit}  cell{atomic_unit}
       H  5.80999e-04  6.58107e-04  4.94722e-04
1
# CELL(abcABC):  188.97261   188.97261   188.97261    90.00000    90.00000    90.00000  Step:          15  Bead:       0 kinetic_cv{atomic_unit}  cell{atomic_unit}
       H  9.66997e-04  7.09489e-04  5.14461e-04
1
# CELL(abcABC):  188.97261   188.97261   188.97261    90.00000    90.00000    90.00000  Step:          20  Bead:       0 kinetic_cv{atomic_unit}  cell{atomic_unit}
       H  7.18276e-04  8.90268e-04  5.23905e-04
1
# CELL(abcABC):  188.97261   188.97261   188.97261    90.00000    90.00000    90.00000  Step:          25  Bead:       0 kinetic_cv{atomic_unit}  cell{atomic_unit}
       H  6.03234e-04  1.04616e-03  4.93019e-04
1
# CELL(abcABC):  188.97261   188.97261   188.97261    90.00000    90.00000    90.00000  Step:          30  Bead:       0 kinetic_cv{atomic_unit}  cell{atomic_unit}
       H  6.82836e-04  1.00044e-03  5.07359e-04
1
# CELL(abcABC):  188.97261   188.97261   188.97261    90.00000    90.00000    90.00000  Step:          35  Bead:       0 kinetic_cv{atomic_unit}  cell{atomic_unit}
       H  8.78814e-04  5.45035e-04  4.99493e-04
1
# CELL(abcABC):  188.97261   188.97261   188.97261    90.00000    90.00000    90.00000  Step:          40  Bead:       0 kinetic_cv{atomic_unit}  cell{atomic_unit}
       H  9.50417e-04  6.56746e-04  5.25560e-04
1
# CELL(abcABC):  188.97261   188.97261   188.97261    90.00000    90.00000    90.00000  Step:          45  Bead:       0 kinetic_cv{atomic_unit}  cell{atomic_unit}
       H  7.04625e-04  6.28916e-04  5.41676e-04
1
# CELL(abcABC):  188.97261   188.97261   188.97261    90.00000    90.00000    90.00000  Step:          50  Bead:       0 kinetic_cv{atomic_unit}  cell{atomic_unit}
       H  6.15244e-04  7.03140e-04  5.30285e-04
1
# CELL(abcABC):  188.97261   188.97261   188.97261    90.00000    90.00000    90.00000  Step:          55  Bead:       0 kinetic_cv{atomic_unit}  cell{atomic_unit}
       H  6.63507e-04  6.49911e-04  5.35872e-04
1
# CELL(abcABC):  188.97261   188.97261   188.97261    90.00000    90.00000    90.00000  Step:          60  Bead:       0 kinetic_cv{atomic_unit}  cell{atomic_unit}
       H  6.25515e-04  6.54236e-04  5.55528e-04
1
# CELL(abcABC):  188.97261   188.97261   188.97261    90.00000    90.00000    90.00000  Step:          65  Bead:       0 kinetic_cv{atomic_unit}  cell{atomic_unit}
       H  6.24022e-04  5.77081e-04  4.93770e-04
1
# CELL(abcABC):  188.97261   188.97261   188.97261    90.00000    90.00000    90.00000  Step:          70  Bead:       0 kinetic_cv{atomic_unit}  cell{atomic_unit}
       H  6.84648e-04  6.99624e-04  5.23044e-04
1
# CELL(abcABC):  188.97261   188.97261   188.97261    90.00000    90.00000    90.00000  Step:          75  Bead:       0 kinetic_cv{atomic_unit}  cell{atomic_unit}
       H  5.71756e-04  6.28949e-04  5.32986e-04
1
# CELL(abcABC):  188.97261   188.97261   188.97261    90.00000    90.00000    90.00000  Step:          80  Bead:       0 kinetic_cv{atomic_unit}  cell{atomic_unit}
       H  5.81266e-04  6.18915e-04  5.15322e-04
1
# CELL(abcABC):  188.97261   188.97261   188.97261    90.00000    90.00000    90.00000  Step:          85  Bead:       0 kinetic_cv{atomic_unit}  cell{atomic_unit}
       H  7.45118e-04  5.28081e-04  6.68626e-04
1
# CELL(abcABC):  188.97261   188.97261   188.97261    90.00000    90.00000    90.00000  Step:          90  Bead:       0 kinetic_cv{atomic_unit}  cell{atomic_unit}
       H  7.21028e-04  7.26984e-04  5.41445e-04
1
# CELL(abcABC):  188.97261   188.97261   188.97261    90.00000    90.00000    90.00000  Step:          95  Bead:       0 kinetic_cv{atomic_unit}  cell{atomic_unit}
       H  6.73587e-04  8.61627e-04  5.68081e-04
1
# CELL(abcABC):  188.97261   188.97261   188.97261    90.00000    90.00000    90.00000  Step:         100  Bead:       0 kinetic_cv{atomic_unit}  cell{atomic_unit}
       H  6.48726e-04  9.57709e-04  5.73232e-04
1
# CELL(abcABC):  188.97261   188.97261   188.97261    90.00000    90.00000    90.00000  Step:         105  Bead:       0 kinetic_cv{atomic_unit}  cell{atomic_unit}
       H  6.04036e-04  8.20679e-04  5.76896e-04
1
# CELL(abcABC):  188.97261   188.97261   188.97261    90.00000    90.00000    90.00000  Step:         110  Bead:       0 kinetic_cv{atomic_unit}  cell{atomic_unit}
       H  5.36966e-04  6.13026e-04  5.19022e-04
1
# CELL(abcABC):  188.97261   188.97261   188.97261    90.00000    90.00000    90.00000  Step:         115  Bead:       0 kinetic_cv{atomic_unit}  cell{atomic_unit}
       H  8.03445e-04  6.76219e-04  5.53500e-04
1
# CELL(abcABC):  188.97261   188.97261   188.97261    90.00000    90.00000    90.00000  Step:         120  Bead:       0 kinetic_cv{atomic_unit}  cell{atomic_unit}
       H  5.89135e-04  6.71547e-04  5.10808e-04
1
# CELL(abcABC):  188.97261   188.97261   188.97261    90.00000    90.00000    90.00000  Step:         125  Bead:       0 kinetic_cv{atomic_unit}  cell{atomic_unit}
       H  6.05097e-04  5.88808e-04  5.07875e-04
1
# CELL(abcABC):  188.97261   188.97261   188.97261    90.00000    90.00000    90.00000  Step:         130  Bead:       0 kinetic_cv{atomic_unit}  cell{atomic_unit}
       H  6.09083e-04  7.80236e-04  5.12881e-04
1
# CELL(abcABC):  188.97261   188.97261   188.97261    90.00000    90.00000    90.00000  Step:         135  Bead:       0 kinetic_cv{atomic_unit}  cell{atomic_unit}
       H  5.73483e-04  6.34027e-04  5.13043e-04
1
# CELL(abcABC):  188.97261   188.97261   188.97261    90.00000    90.00000    90.00000  Step:         140  Bead:       0 kinetic_cv{atomic_unit}  cell{atomic_unit}
       H  5.45806e-04  5.84041e-04  5.10728e-04
1
# CELL(abcABC):  188.97261   188.97261   188.97261    90.00000    90.00000    90.00000  Step:         145  Bead:       0 kinetic_cv{atomic_unit}  cell{atomic_unit}
       H  6.02940e-04  6.13457e-04  5.22574e-04
1
# CELL(abcABC):  188.97261   188.97261   188.97261    90.00000    90.00000    90.00000  Step:         150  Bead:       0 kinetic_cv{atomic_unit}  cell{atomic_unit}
       H  6.07734e-04  6.75676e-04  5.06758e-04
1
# CELL(abcABC):  188.97261   188.97261   188.97261    90.00000    90.00000    90.00000  Step:         155  Bead:       0 kinetic_cv{atomic_unit}  cell{atomic_unit}
       H  6.23151e-04  6.36909e-04  5.02312e-04
1
# CELL(abcABC):  188.97261   188.97261   188.97261    90.00000    90.00000    90.00000  Step:         160  Bead:       0 kinetic_cv{atomic_unit}  cell{atomic_unit}
       H  7.01150e-04  6.16168e-04  4.95851e-04
1
# CELL(abcABC):  188.97261   188.97261   188.97261    90.00000    90.00000    90.00000  Step:         165  Bead:       0 kinetic_cv{atomic_unit}  cell{atomic_unit}
       H  6.44724e-04  6.23228e-04  5.04367e-04
1
# CELL(abcABC):  188.97261   188.97261   188.97261    90.00000    90.00000    90.00000  Step:         170  Bead:       0 kinetic_cv{atomic_unit}  cell{atomic_unit}
       H  8.17883e-04  6.81913e-04  5.19143e-04
1
# CELL(abcABC):  188.97261   188.97261   188.97261    90.00000    90.00000    90.00000  Step:         175  Bead:       0 kinetic_cv{atomic_unit}  cell{atomic_unit}
       H  7.06057e-04  6.24330e-04  5.16284e-04
1
# CELL(abcABC):  188.97261   188.97261   188.97261    90.00000    90.00000    90.00000  Step:         180  Bead:       0 kinetic_cv{atomic_unit}  cell{atomic_unit}
       H  6.42966e-04  5.72867e-04  5.06126e-04
1
# CELL(abcABC):  188.97261   188.97261   188.97261    90.00000    90.00000    90.00000  Step:         185  Bead:       0 kinetic_cv{atomic_unit}  cell{atomic_unit}
       H  5.89698e-04  6.19172e-04  4.84862e-04
1
# CELL(abcABC):  188.97261   188.97261   188.97261    90.00000    90.00000    90.00000  Step:         190  Bead:       0 kinetic_cv{atomic_unit}  cell{atomic_unit}
       H  7.51415e-04  5.58213e-04  5.25428e-04
1
# CELL(abcABC):  188.97261   188.97261   188.97261    90.00000    90.00000    90.00000  Step:         195  Bead:       0 kinetic_cv{atomic_unit}  cell{atomic_unit}
       H  1.02547e-03  5.74170e-04  5.16112e-04
1
# CELL(abcABC):  188.97261   188.97261   188.97261    90.00000    90.00000    90.00000  Step:         200  Bead:       0 kinetic_cv{atomic_unit}  cell{atomic_unit}
       H  9.42509e-04  5.83378e-04  5.27452e-04
1
# CELL(abcABC):  188.97261   188.97261   188.97261    90.00000    90.00000    90.00000  Step:         205  Bead:       0 kinetic_cv{atomic_unit}  cell{atomic_unit}
       H  6.83011e-04  5.86578e-04  5.22360e-04
1
# CELL(abcABC):  188.97261   188.97261   188.97261    90.00000    90.00000    90.00000  Step:         210  Bead:       0 kinetic_cv{atomic_unit}  cell{atomic_unit}
       H  7.09452e-04  7.41957e-04  4.99556e-04
1
# CELL(abcABC):  188.97261   188.97261   188.97261    90.00000    90.00000    90.00000  Step:         215  Bead:       0 kinetic_cv{atomic_unit}  cell{atomic_unit}
       H  6.00026e-04  8.01111e-04  5.00714e-04
1
# CELL(abcABC):  188.97261   188.97261   188.97261    90.00000    90.00000    90.00000  Step:         220  Bead:       0 kinetic_cv{atomic_unit}  cell{atomic_unit}
       H  5.12711e-04  8.89814e-04  5.01441e-04
1
# CELL(abcABC):  188.97261   188.97261   188.97261    90.00000    90.00000    90.00000  Step:         225  Bead:       0 kinetic_cv{atomic_unit}  cell{atomic_unit}
       H  5.83281e-04  6.87637e-04  5.07361e-04
1
# CELL(abcABC):  188.97261   188.97261   188.97261    90.00000    90.00000    90.00000  Step:         230  Bead:       0 kinetic_cv{atomic_unit}  cell{atomic_unit}
       H  6.10243e-04  6.43084e-04  5.11969e-04
1
# CELL(abcABC):  188.97261   188.97261   188.97261    90.00000    90.00000    90.00000  Step:         235  Bead:       0 kinetic_cv{atomic_unit}  cell{atomic_unit}
       H  6.05172e-04  5.97260e-04  5.17706e-04
1
# CELL(abcABC):  188.97261   188.97261   188.97261    90.00000    90.00000    90.00000  Step:         240  Bead:       0 kinetic_cv{atomic_unit}  cell{atomic_unit}
       H  7.30724e-04  5.71831e-04  5.01164e-04
1
# CELL(abcABC):  188.97261   188.97261   188.97261    90.00000    90.00000    90.00000  Step:         245  Bead:       0 kinetic_cv{atomic_unit}  cell{atomic_unit}
       H  8.12417e-04  6.22500e-04  5.26579e-04
1
# CELL(abcABC):  188.97261   188.97261   188.97261    90.00000    90.00000    90.00000  Step:         250  Bead:       0 kinetic_cv{atomic_unit}  cell{atomic_unit}
       H  9.05596e-04  6.44083e-04  5.19568e-04
1
# CELL(abcABC):  188.97261   188.97261   188.97261    90.00000    90.00000    90.00000  Step:         255  Bead:       0 kinetic_cv{atomic_unit}  cell{atomic_unit}
       H  6.31995e-04  6.40479e-04  5.31538e-04
1
# CELL(abcABC):  188.97261   188.97261   188.97261    90.00000    90.00000    90.00000  Step:         260  Bead:       0 kinetic_cv{atomic_unit}  cell{atomic_unit}
       H  6.72675e-04  6.62020e-04  5.05216e-04
1
# CELL(abcABC):  188.97261   188.97261   188.97261    90.00000    90.00000    90.00000  Step:         265  Bead:       0 kinetic_cv{atomic_unit}  cell{atomic_unit}
       H  7.18638e-04  8.00571e-04  5.13406e-04
1
# CELL(abcABC):  188.97261   188.97261   188.97261    90.00000    90.00000    90.00000  Step:         270  Bead:       0 kinetic_cv{atomic_unit}  cell{atomic_unit}
       H  6.38835e-04  8.73866e-04  4.98533e-04
1
# CELL(abcABC):  188.97261   188.97261   188.97261    90.00000    90.00000    90.00000  Step:         275  Bead:       0 kinetic_cv{atomic_unit}  cell{atomic_unit}
       H  7.97707e-04  6.22621e-04  4.85374e-04
1
# CELL(abcABC):  188.97261   188.97261   188.97261    90.00000    90.00000    90.00000  Step:         280  Bead:       0 kinetic_cv{atomic_unit}  cell{atomic_unit}
       H  5.58842e-04  6.36148e-04  5.15183e-04
1
# CELL(abcABC):  188.97261   188.97261   188.97261    90.00000    90.00000    90.00000  Step:         285  Bead:       0 kinetic_cv{atomic_unit}  cell{atomic_unit}
       H  6.77895e-04  6.04779e-04  5.06334e-04
1
# CELL(abcABC):  188.97261   188.97261   188.97261    90.00000    90.00000    90.00000  Step:         290  Bead:       0 kinetic_cv{atomic_unit}  cell{atomic_unit}
       H  7.56171e-04  6.53762e-04  5.26641e-04
1
# CELL(abcABC):  188.97261   188.97261   188.97261    90.00000    90.00000    90.00000  Step:         295  Bead:       0 kinetic_cv{atomic_unit}  cell{atomic_unit}
       H  8.20467e-04  7.20975e-04  5.01632e-04
1
# CELL(abcABC):  188.97261   188.97261   188.97261    90.00000    90.00000    90.00000  Step:         300  Bead:       0 kinetic_cv{atomic_unit}  cell{atomic_unit}
       H  6.73204e-04  5.64763e-04  4.98361e-04
1
# CELL(abcABC):  188.97261   188.97261   188.97261    90.00000    90.00000    90.00000  Step:         305  Bead:       0 kinetic_cv{atomic_unit}  cell{atomic_unit}
       H  7.72057e-04  5.64255e-04  4.94632e-04
1
# CELL(abcABC):  188.97261   188.97261   188.97261    90.00000    90.00000    90.00000  Step:         310  Bead:       0 kinetic_cv{atomic_unit}  cell{atomic_unit}
       H  6.17051e-04  6.17776e-04  4.93752e-04
1
# CELL(abcABC):  188.97261   188.97261   188.97261    90.00000    90.00000    90.00000  Step:         315  Bead:       0 kinetic_cv{atomic_unit}  cell{atomic_unit}
       H  7.03157e-04  7.17872e-04  5.26768e-04
1
# CELL(abcABC):  188.97261   188.97261   188.97261    90.00000    90.00000    90.00000  Step:         320  Bead:       0 kinetic_cv{atomic_unit}  cell{atomic_unit}
       H  7.78602e-04  5.75751e-04  5.15106e-04
1
# CELL(abcABC):  188.97261   188.97261   188.97261    90.00000    90.00000    90.00000  Step:         325  Bead:       0 kinetic_cv{atomic_unit}  cell{atomic_unit}
       H  7.43284e-04  6.74414e-04  5.07802e-04
1
# CELL(abcABC):  188.97261   188.97261   188.97261    90.00000    90.00000    90.00000  Step:         330  Bead:       0 kinetic_cv{atomic_unit}  cell{atomic_unit}
       H  6.52226e-04  5.20267e-04  5.06057e-04
1
# CELL(abcABC):  188.97261   188.97261   188.97261    90.00000    90.00000    90.00000  Step:         335  Bead:       0 kinetic_cv{atomic_unit}  cell{atomic_unit}
       H  5.44290e-04  5.44016e-04  5.22964e-04
1
# CELL(abcABC):  188.97261   188.97261   188.97261    90.00000    90.00000    90.00000  Step:         340  Bead:       0 kinetic_cv{atomic_unit}  cell{atomic_unit}
       H  7.88317e-04  5.83363e-04  4.93273e-04
1
# CELL(abcABC):  188.97261   188.97261   188.97261    90.00000    90.00000    90.00000  Step:         345  Bead:       0 kinetic_cv{atomic_unit}  cell{atomic_unit}
       H  8.68642e-04  1.09915e-03  5.20739e-04
1
# CELL(abcABC):  188.97261   188.97261   188.97261    90.00000    90.00000    90.00000  Step:         350  Bead:       0 kinetic_cv{atomic_unit}  cell{atomic_unit}
       H  7.09274e-04  9.81323e-04  5.22410e-04
1
# CELL(abcABC):  188.97261   188.97261   188.97261    90.00000    90.00000    90.00000  Step:         355  Bead:       0 kinetic_cv{atomic_unit}  cell{atomic_unit}
       H  5.89329e-04  5.90888e-04  6.02632e-04
1
# CELL(abcABC):  188.97261   188.97261   188.97261    90.00000    90.00000    90.00000  Step:         360  Bead:       0 kinetic_cv{atomic_unit}  cell{atomic_unit}
       H  6.13179e-04  5.63130e-04  5.34659e-04
1
# CELL(abcABC):  188.97261   188.97261   188.97261    90.00000    90.00000    90.00000  Step:         365  Bead:       0 kinetic_cv{atomic_unit}  cell{atomic_unit}
       H  5.76734e-04  5.47640e-04  6.03726e-04
1
# CELL(abcABC):  188.97261   188.97261   188.97261    90.00000    90.00000    90.00000  Step:         370  Bead:       0 kinetic_cv{atomic_unit}  cell{atomic_unit}
       H  7.30496e-04  6.48061e-04  5.42434e-04
1
# CELL(abcABC):  188.97261   188.97261   188.97261    90.00000    90.00000    90.00000  Step:         375  Bead:       0 kinetic_cv{atomic_unit}  cell{atomic_unit}
       H  6.66324e-04  6.94735e-04  5.00166e-04
1
# CELL(abcABC):  188.97261   188.97261   188.97261    90.00000    90.00000    90.00000  Step:         380  Bead:       0 kinetic_cv{atomic_unit}  cell{atomic_unit}
       H  5.78328e-04  7.09049e-04  5.37687e-04
1
# CELL(abcABC):  188.97261   188.97261   188.97261    90.00000    90.00000    90.00000  Step:         385  Bead:       0 kinetic_cv{atomic_unit}  cell{atomic_unit}
       H  6.88979e-04  5.33753e-04  5.44578e-04
1
# CELL(abcABC):  188.97261   188.97261   188.97261    90.00000    90.00000    90.00000  Step:         390  Bead:       0 kinetic_cv{atomic_unit}  cell{atomic_unit}
       H  8.34559e-04  5.72722e-04  5.38547e-04
1
# CELL(abcABC):  188.97261   188.97261   188.97261    90.00000    90.00000    90.00000  Step:         395  Bead:       0 kinetic_cv{atomic_unit}  cell{atomic_unit}
       H  7.73892e-04  1.00351e-03  5.05778e-04
1
# CELL(abcABC):  188.97261   188.97261   188.97261    90.00000    90.00000    90.00000  Step:         400  Bead:       0 kinetic_cv{atomic_unit}  cell{atomic_unit}
       H  1.12505e-03  9.32785e-04  5.77898e-04
1
# CELL(abcABC):  188.97261   188.97261   188.97261    90.00000    90.00000    90.00000  Step:         405  Bead:       0 kinetic_cv{atomic_unit}  cell{atomic_unit}
       H  8.42994e-04  7.36640e-04  5.16795e-04
1
# CELL(abcABC):  188.97261   188.97261   188.97261    90.00000    90.00000    90.00000  Step:         410  Bead:       0 kinetic_cv{atomic_unit}  cell{atomic_unit}
       H  6.27335e-04  5.83511e-04  6.10455e-04
1
# CELL(abcABC):  188.97261   188.97261   188.97261    90.00000    90.00000    90.00000  Step:         415  Bead:       0 kinetic_cv{atomic_unit}  cell{atomic_unit}
       H  9.52146e-04  6.09252e-04  6.05932e-04
1
# CELL(abcABC):  188.97261   188.97261   188.97261    90.00000    90.00000    90.00000  Step:         420  Bead:       0 kinetic_cv{atomic_unit}  cell{atomic_unit}
       H  6.10791e-04  7.04096e-04  6.07503e-04
1
# CELL(abcABC):  188.97261   188.97261   188.97261    90.00000    90.00000    90.00000  Step:         425  Bead:       0 kinetic_cv{atomic_unit}  cell{atomic_unit}
       H  7.96306e-04  8.25802e-04  6.38578e-04
1
# CELL(abcABC):  188.97261   188.97261   188.97261    90.00000    90.00000    90.00000  Step:         430  Bead:       0 kinetic_cv{atomic_unit}  cell{atomic_unit}
       H  7.34671e-04  5.50696e-04  5.52972e-04
1
# CELL(abcABC):  188.97261   188.97261   188.97261    90.00000    90.00000    90.00000  Step:         435  Bead:       0 kinetic_cv{atomic_unit}  cell{atomic_unit}
       H  5.58141e-04  5.79630e-04  5.23232e-04
1
# CELL(abcABC):  188.97261   188.97261   188.97261    90.00000    90.00000    90.00000  Step:         440  Bead:       0 kinetic_cv{atomic_unit}  cell{atomic_unit}
       H  5.49987e-04  5.76019e-04  5.83066e-04
1
# CELL(abcABC):  188.97261   188.97261   188.97261    90.00000    90.00000    90.00000  Step:         445  Bead:       0 kinetic_cv{atomic_unit}  cell{atomic_unit}
       H  6.41715e-04  6.09593e-04  6.25937e-04
1
# CELL(abcABC):  188.97261   188.97261   188.97261    90.00000    90.00000    90.00000  Step:         450  Bead:       0 kinetic_cv{atomic_unit}  cell{atomic_unit}
       H  6.11304e-04  6.99353e-04  5.12774e-04
1
# CELL(abcABC):  188.97261   188.97261   188.97261    90.00000    90.00000    90.00000  Step:         455  Bead:       0 kinetic_cv{atomic_unit}  cell{atomic_unit}
       H  5.51769e-04  9.62633e-04  6.30427e-04
1
# CELL(abcABC):  188.97261   188.97261   188.97261    90.00000    90.00000    90.00000  Step:         460  Bead:       0 kinetic_cv{atomic_unit}  cell{atomic_unit}
       H  7.01512e-04  1.06419e-03  4.99878e-04
1
# CELL(abcABC):  188.97261   188.97261   188.97261    90.00000    90.00000    90.00000  Step:         465  Bead:       0 kinetic_cv{atomic_unit}  cell{atomic_unit}
       H  4.99735e-04  8.50164e-04  5.14729e-04
1
# CELL(abcABC):  188.97261   188.97261   188.97261    90.00000    90.00000    90.00000  Step:         470  Bead:       0 kinetic_cv{atomic_unit}  cell{atomic_unit}
       H  6.30234e-04  9.43620e-04  5.20760e-04
1
# CELL(abcABC):  188.97261   188.97261   188.97261    90.00000    90.00000    90.00000  Step:         475  Bead:       0 kinetic_cv{atomic_unit}  cell{atomic_unit}
       H  5.40856e-04  6.16484e-04  4.96617e-04
1
# CELL(abcABC):  188.97261   188.97261   188.97261    90.00000    90.00000    90.00000  Step:         480  Bead:       0 kinetic_cv{atomic_unit}  cell{atomic_unit}
       H  5.80858e-04  5.90361e-04  5.03753e-04
1
# CELL(abcABC):  188.97261   188.97261   188.97261    90.00000    90.00000    90.00000  Step:         485  Bead:       0 kinetic_cv{atomic_unit}  cell{atomic_unit}
       H  6.04220e-04  5.30126e-04  5.59004e-04
1
# CELL(abcABC):  188.97261   188.97261   188.97261    90.00000    90.00000    90.00000  Step:         490  Bead:       0 kinetic_cv{atomic_unit}  cell{atomic_unit}
       H  6.05798e-04  6.32522e-04  5.50246e-04
1
# CELL(abcABC):  188.97261   188.97261   188.97261    90.00000    90.00000    90.00000  Step:         495  Bead:       0 kinetic_cv{atomic_unit}  cell{atomic_unit}
       H  6.54129e-04  6.16739e-04  5.93613e-04
1
# CELL(abcABC):  188.97261   188.97261   188.97261    90.00000    90.00000    90.00000  Step:         500  Bead:       0 kinetic_cv{atomic_unit}  cell{atomic_unit}
       H  6.52463e-04  6.02364e-04  6.29773e-04
1
# CELL(abcABC):  188.97261   188.97261   188.97261    90.00000    90.00000    90.00000  Step:         505  Bead:       0 kinetic_cv{atomic_unit}  cell{atomic_unit}
       H  9.53600e-04  6.31281e-04  5.63534e-04
1
# CELL(abcABC):  188.97261   188.97261   188.97261    90.00000    90.00000    90.00000  Step:         510  Bead:       0 kinetic_cv{atomic_unit}  cell{atomic_unit}
       H  7.49095e-04  6.44561e-04  5.88760e-04
1
# CELL(abcABC):  188.97261   188.97261   188.97261    90.00000    90.00000    90.00000  Step:         515  Bead:       0 kinetic_cv{atomic_unit}  cell{atomic_unit}
       H  6.11887e-04  8.30012e-04  6.48667e-04
1
# CELL(abcABC):  188.97261   188.97261   188.97261    90.00000    90.00000    90.00000  Step:         520  Bead:       0 kinetic_cv{atomic_unit}  cell{atomic_unit}
       H  6.24886e-04  7.44564e-04  6.98676e-04
1
# CELL(abcABC):  188.97261   188.97261   188.97261    90.00000    90.00000    90.00000  Step:         525  Bead:       0 kinetic_cv{atomic_unit}  cell{atomic_unit}
       H  5.48313e-04  5.65811e-04  5.40920e-04
1
# CELL(abcABC):  188.97261   188.97261   188.97261    90.00000    90.00000    90.00000  Step:         530  Bead:       0 kinetic_cv{atomic_unit}  cell{atomic_unit}
       H  6.51484e-04  6.83074e-04  5.30569e-04
1
# CELL(abcABC):  188.97261   188.97261   188.97261    90.00000    90.00000    90.00000  Step:         535  Bead:       0 kinetic_cv{atomic_unit}  cell{atomic_unit}
       H  6.36038e-04  6.35176e-04  4.92420e-04
1
# CELL(abcABC):  188.97261   188.97261   188.97261    90.00000    90.00000    90.00000  Step:         540  Bead:       0 kinetic_cv{atomic_unit}  cell{atomic_unit}
       H  6.33858e-04  6.02402e-04  4.98974e-04
1
# CELL(abcABC):  188.97261   188.97261   188.97261    90.00000    90.00000    90.00000  Step:         545  Bead:       0 kinetic_cv{atomic_unit}  cell{atomic_unit}
       H  6.87098e-04  5.87793e-04  5.33349e-04
1
# CELL(abcABC):  188.97261   188.97261   188.97261    90.00000    90.00000    90.00000  Step:         550  Bead:       0 kinetic_cv{atomic_unit}  cell{atomic_unit}
       H  7.48598e-04  6.22599e-04  4.96444e-04
1
# CELL(abcABC):  188.97261   188.97261   188.97261    90.00000    90.00000    90.00000  Step:         555  Bead:       0 kinetic_cv{atomic_unit}  cell{atomic_unit}
       H  6.61665e-04  6.46138e-04  4.83085e-04
1
# CELL(abcABC):  188.97261   188.97261   188.97261    90.00000    90.00000    90.00000  Step:         560  Bead:       0 kinetic_cv{atomic_unit}  cell{atomic_unit}
       H  7.10844e-04  6.72030e-04  5.11288e-04
1
# CELL(abcABC):  188.97261   188.97261   188.97261    90.00000    90.00000    90.00000  Step:         565  Bead:       0 kinetic_cv{atomic_unit}  cell{atomic_unit}
       H  5.89513e-04  5.62608e-04  4.91569e-04
1
# CELL(abcABC):  188.97261   188.97261   188.97261    90.00000    90.00000    90.00000  Step:         570  Bead:       0 kinetic_cv{atomic_unit}  cell{atomic_unit}
       H  1.26740e-03  6.52575e-04  4.87415e-04
1
# CELL(abcABC):  188.97261   188.97261   188.97261    90.00000    90.00000    90.00000  Step:         575  Bead:       0 kinetic_cv{atomic_unit}  cell{atomic_unit}
       H  1.05230e-03  5.47714e-04  4.93240e-04
1
# CELL(abcABC):  188.97261   188.97261   188.97261    90.00000    90.00000    90.00000  Step:         580  Bead:       0 kinetic_cv{atomic_unit}  cell{atomic_unit}
       H  8.66977e-04  5.93265e-04  5.04163e-04
1
# CELL(abcABC):  188.97261   188.97261   188.97261    90.00000    90.00000    90.00000  Step:         585  Bead:       0 kinetic_cv{atomic_unit}  cell{atomic_unit}
       H  6.23406e-04  6.47891e-04  4.92785e-04
1
# CELL(abcABC):  188.97261   188.97261   188.97261    90.00000    90.00000    90.00000  Step:         590  Bead:       0 kinetic_cv{atomic_unit}  cell{atomic_unit}
       H  6.72200e-04  5.84859e-04  4.80214e-04
1
# CELL(abcABC):  188.97261   188.97261   188.97261    90.00000    90.00000    90.00000  Step:         595  Bead:       0 kinetic_cv{atomic_unit}  cell{atomic_unit}
       H  6.38724e-04  5.34050e-04  4.84051e-04
1
# CELL(abcABC):  188.97261   188.97261   188.97261    90.00000    90.00000    90.00000  Step:         600  Bead:       0 kinetic_cv{atomic_unit}  cell{atomic_unit}
       H  5.64035e-04  5.81618e-04  4.92318e-04
1
# CELL(abcABC):  188.97261   188.97261   188.97261    90.00000    90.00000    90.00000  Step:         605  Bead:       0 kinetic_cv{atomic_unit}  cell{atomic_unit}
       H  5.99697e-04  6.56963e-04  4.99313e-04
1
# CELL(abcABC):  188.97261   188.97261   188.97261    90.00000    90.00000    90.00000  Step:         610  Bead:       0 kinetic_cv{atomic_unit}  cell{atomic_unit}
       H  6.45548e-04  5.74503e-04  5.06693e-04
1
# CELL(abcABC):  188.97261   188.97261   188.97261    90.00000    90.00000    90.00000  Step:         615  Bead:       0 kinetic_cv{atomic_unit}  cell{atomic_unit}
       H  7.23863e-04  5.69760e-04  4.94029e-04
1
# CELL(abcABC):  188.97261   188.97261   188.97261    90.00000    90.00000    90.00000  Step:         620  Bead:       0 kinetic_cv{atomic_unit}  cell{atomic_unit}
       H  6.49864e-04  6.10837e-04  4.87248e-04
1
# CELL(abcABC):  188.97261   188.97261   188.97261    90.00000    90.00000    90.00000  Step:         625  Bead:       0 kinetic_cv{atomic_unit}  cell{atomic_unit}
       H  6.25277e-04  5.73271e-04  5.30515e-04
1
# CELL(abcABC):  188.97261   188.97261   188.97261    90.00000    90.00000    90.00000  Step:         630  Bead:       0 kinetic_cv{atomic_unit}  cell{atomic_unit}
       H  6.62407e-04  5.95281e-04  5.18414e-04
1
# CELL(abcABC):  188.97261   188.97261   188.97261    90.00000    90.00000    90.00000  Step:         635  Bead:       0 kinetic_cv{atomic_unit}  cell{atomic_unit}
       H  7.32930e-04  5.82596e-04  5.04784e-04
1
# CELL(abcABC):  188.97261   188.97261   188.97261    90.00000    90.00000    90.00000  Step:         640  Bead:       0 kinetic_cv{atomic_unit}  cell{atomic_unit}
       H  9.30608e-04  5.87187e-04  5.07785e-04
1
# CELL(abcABC):  188.97261   188.97261   188.97261    90.00000    90.00000    90.00000  Step:         645  Bead:       0 kinetic_cv{atomic_unit}  cell{atomic_unit}
       H  9.83205e-04  5.72768e-04  4.94181e-04
1
# CELL(abcABC):  188.97261   188.97261   188.97261    90.00000    90.00000    90.00000  Step:         650  Bead:       0 kinetic_cv{atomic_unit}  cell{atomic_unit}
       H  8.73327e-04  7.03578e-04  4.83288e-04
1
# CELL(abcABC):  188.97261   188.97261   188.97261    90.00000    90.00000    90.00000  Step:         655  Bead:       0 kinetic_cv{atomic_unit}  cell{atomic_unit}
       H  5.77561e-04  7.78782e-04  4.84564e-04
1
# CELL(abcABC):  188.97261   188.97261   188.97261    90.00000    90.00000    90.00000  Step:         660  Bead:       0 kinetic_cv{atomic_unit}  cell{atomic_unit}
       H  5.56949e-04  7.26623e-04  4.82674e-04
1
# CELL(abcABC):  188.97261   188.97261   188.97261    90.00000    90.00000    90.00000  Step:         665  Bead:       0 kinetic_cv{atomic_unit}  cell{atomic_unit}
       H  7.36938e-04  5.97992e-04  5.02948e-04
1
# CELL(abcABC):  188.97261   188.97261   188.97261    90.00000    90.00000    90.00000  Step:         670  Bead:       0 kinetic_cv{atomic_unit}  cell{atomic_unit}
       H  6.25659e-04  6.72562e-04  5.15681e-04
1
# CELL(abcABC):  188.97261   188.97261   188.97261    90.00000    90.00000    90.00000  Step:         675  Bead:       0 kinetic_cv{atomic_unit}  cell{atomic_unit}
       H  6.10197e-04  6.57007e-04  5.09396e-04
1
# CELL(abcABC):  188.97261   188.97261   188.97261    90.00000    90.00000    90.00000  Step:         680  Bead:       0 kinetic_cv{atomic_unit}  cell{atomic_unit}
       H  6.04952e-04  9.90868e-04  5.23324e-04
1
# CELL(abcABC):  188.97261   188.97261   188.97261    90.00000    90.00000    90.00000  Step:         685  Bead:       0 kinetic_cv{atomic_unit}  cell{atomic_unit}
       H  6.20169e-04  7.14354e-04  5.02025e-04
1
# CELL(abcABC):  188.97261   188.97261   188.97261    90.00000    90.00000    90.00000  Step:         690  Bead:       0 kinetic_cv{atomic_unit}  cell{atomic_unit}
       H  8.21695e-04  6.39877e-04  4.87060e-04
1
# CELL(abcABC):  188.97261   188.97261   188.97261    90.00000    90.00000    90.00000  Step:         695  Bead:       0 kinetic_cv{atomic_unit}  cell{atomic_unit}
       H  6.00107e-04  6.19385e-04  5.02124e-04
1