1
# CELL(abcABC):  188.97261   188.97261   188.97261    90.00000    90.00000    90.00000  Step:           0  Bead:       0 kinetic_cv{atomic_unit}  cell{atomic_unit}
       H  4.75022e-04  4.75022e-04  4.75022e-04
1
# CELL(abcABC):  188.97261   188.97261   188.97261    90.00000    90.00000    90.00000  Step:           5  Bead:       0 kinetic_cv{atomic_unit}  cell{atomic_unit}
       H  5.72340e-04  6.39454e-04  5.28710e-04
1
# CELL(abcABC):  188.97261   188.97261   188.97261    90.00000    90.00000    90.00000  Step:          10  Bead:       0 kinetic_cv{atomic_unit}  cell{atomic_unit}
       H  6.60636e-04  6.75584e-04  5.45066e-04
1
# CELL(abcABC):  188.97261   188.97261   188.97261    90.00000    90.00000    90.00000  Step:          15  Bead:       0 kinetic_cv{atomic_unit}  cell{atomic_unit}
       H  6.83384e-04  4.99541e-04  5.12012e-04
1
# CELL(abcABC):  188.97261   188.97261   188.97261    90.00000    90.00000    90.00000  Step:          20  Bead:       0 kinetic_cv{atomic_unit}  cell{atomic_unit}
       H  6.20186e-04  6.23847e-04  5.48056e-04
1
# CELL(abcABC):  188.97261   188.97261   188.97261    90.00000    90.00000    90.00000  Step:          25  Bead:       0 kinetic_cv{atomic_unit}  cell{atomic_unit}
       H  5.92529e-04  5.83636e-04  4.90691e-04
1
# CELL(abcABC):  188.97261   188.97261   188.97261    90.00000    90.00000    90.00000  Step:          30  Bead:       0 kinetic_cv{atomic_unit}  cell{atomic_unit}
       H  5.64707e-04  6.92859e-04  5.01983e-04
1
# CELL(abcABC):  188.97261   188.97261   188.97261    90.00000    90.00000    90.00000  Step:          35  Bead:       0 kinetic_cv{atomic_unit}  cell{atomic_unit}
       H  5.62426e-04  5.42606e-04  5.01442e-04
1
# CELL(abcABC):  188.97261   188.97261   188.97261    90.00000    90.00000    90.00000  Step:          40  Bead:       0 kinetic_cv{atomic_unit}  cell{atomic_unit}
       H  5.51035e-04  5.31463e-04  5.30053e-04
1
# CELL(abcABC):  188.97261   188.97261   188.97261    90.00000    90.00000    90.00000  Step:          45  Bead:       0 kinetic_cv{atomic_unit}  cell{atomic_unit}
       H  5.71578e-04  5.38519e-04  5.41703e-04
1
# CELL(abcABC):  188.97261   188.97261   188.97261    90.00000    90.00000    90.00000  Step:          50  Bead:       0 kinetic_cv{atomic_unit}  cell{atomic_unit}
       H  5.95916e-04  5.38217e-04  5.37844e-04
1
# CELL(abcABC):  188.97261   188.97261   188.97261    90.00000    90.00000    90.00000  Step:          55  Bead:       0 kinetic_cv{atomic_unit}  cell{atomic_unit}
       H  6.27397e-04  6.04336e-04  5.07349e-04
1
# CELL(abcABC):  188.97261   188.97261   188.97261    90.00000    90.00000    90.00000  Step:          60  Bead:       0 kinetic_cv{atomic_unit}  cell{atomic_unit}
       H  5.14578e-04  7.58975e-04  4.91084e-04
1
# CELL(abcABC):  188.97261   188.97261   188.97261    90.00000    90.00000    90.00000  Step:          65  Bead:       0 kinetic_cv{atomic_unit}  cell{atomic_unit}
       H  5.53538e-04  6.14216e-04  5.03008e-04
1
# CELL(abcABC):  188.97261   188.97261   188.97261    90.00000    90.00000    90.00000  Step:          70  Bead:       0 kinetic_cv{atomic_unit}  cell{atomic_unit}
       H  5.80112e-04  5.56071e-04  5.13035e-04
1
# CELL(abcABC):  188.97261   188.97261   188.97261    90.00000    90.00000    90.00000  Step:          75  Bead:       0 kinetic_cv{atomic_unit}  cell{atomic_unit}
       H  6.30794e-04  6.89260e-04  5.11850e-04
1
# CELL(abcABC):  188.97261   188.97261   188.97261    90.00000    90.00000    90.00000  Step:          80  Bead:       0 kinetic_cv{atomic_unit}  cell{atomic_unit}
       H  5.13952e-04  6.05898e-04  5.21771e-04
1
# CELL(abcABC):  188.97261   188.97261   188.97261    90.00000    90.00000    90.00000  Step:          85  Bead:       0 kinetic_cv{atomic_unit}  cell{atomic_unit}
       H  5.27794e-04  5.42564e-04  4.83063e-04
1
# CELL(abcABC):  188.97261   188.97261   188.97261    90.00000    90.00000    90.00000  Step:          90  Bead:       0 kinetic_cv{atomic_unit}  cell{atomic_unit}
       H  6.14676e-04  5.16677e-04  4.91014e-04
1
# CELL(abcABC):  188.97261   188.97261   188.97261    90.00000    90.00000    90.00000  Step:          95  Bead:       0 kinetic_cv{atomic_unit}  cell{atomic_unit}
       H  7.19527e-04  5.09862e-04  4.87019e-04
1
# CELL(abcABC):  188.97261   188.97261   188.97261    90.00000    90.00000    90.00000  Step:         100  Bead:       0 kinetic_cv{atomic_unit}  cell{atomic_unit}
       H  5.95307e-04  5.15598e-04  5.19802e-04
1
# CELL(abcABC):  188.97261   188.97261   188.97261    90.00000    90.00000    90.00000  Step:         105  Bead:       0 kinetic_cv{atomic_unit}  cell{atomic_unit}
       H  5.31565e-04  5.72254e-04  5.11363e-04
1
# CELL(abcABC):  188.97261   188.97261   188.97261    90.00000    90.00000    90.00000  Step:         110  Bead:       0 kinetic_cv{atomic_unit}  cell{atomic_unit}
       H  5.99503e-04  6.03667e-04  4.87034e-04
1
# CELL(abcABC):  188.97261   188.97261   188.97261    90.00000    90.00000    90.00000  Step:         115  Bead:       0 kinetic_cv{atomic_unit}  cell{atomic_unit}
       H  5.27131e-04  5.58056e-04  5.12579e-04
1
# CELL(abcABC):  188.97261   188.97261   188.97261    90.00000    90.00000    90.00000  Step:         120  Bead:       0 kinetic_cv{atomic_unit}  cell{atomic_unit}
       H  5.72538e-04  7.19383e-04  5.23364e-04
1
# CELL(abcABC):  188.97261   188.97261   188.97261    90.00000    90.00000    90.00000  Step:         125  Bead:       0 kinetic_cv{atomic_unit}  cell{atomic_unit}
       H  5.85222e-04  6.02642e-04  5.01565e-04
1
# CELL(abcABC):  188.97261   188.97261   188.97261    90.00000    90.00000    90.00000  Step:         130  Bead:       0 kinetic_cv{atomic_unit}  cell{atomic_unit}
       H  6.09023e-04  5.58885e-04  5.30039e-04
1
# CELL(abcABC):  188.97261   188.97261   188.97261    90.00000    90.00000    90.00000  Step:         135  Bead:       0 kinetic_cv{atomic_unit}  cell{atomic_unit}
       H  5.64027e-04  5.44436e-04  5.66657e-04
1
# CELL(abcABC):  188.97261   188.97261   188.97261    90.00000    90.00000    90.00000  Step:         140  Bead:       0 kinetic_cv{atomic_unit}  cell{atomic_unit}
       H  5.94990e-04  6.25102e-04  5.77184e-04
1
# CELL(abcABC):  188.97261   188.97261   188.97261    90.00000    90.00000    90.00000  Step:         145  Bead:       0 kinetic_cv{atomic_unit}  cell{atomic_unit}
       H  6.14734e-04  5.91305e-04  5.34082e-04
1
# CELL(abcABC):  188.97261   188.97261   188.97261    90.00000    90.00000    90.00000  Step:         150  Bead:       0 kinetic_cv{atomic_unit}  cell{atomic_unit}
       H  6.67349e-04  6.27694e-04  5.04463e-04
1
# CELL(abcABC):  188.97261   188.97261   188.97261    90.00000    90.00000    90.00000  Step:         155  Bead:       0 kinetic_cv{atomic_unit}  cell{atomic_unit}
       H  6.33792e-04  6.09417e-04  5.15809e-04
1
# CELL(abcABC):  188.97261   188.97261   188.97261    90.00000    90.00000    90.00000  Step:         160  Bead:       0 kinetic_cv{atomic_unit}  cell{atomic_unit}
       H  5.11228e-04  7.23832e-04  4.97028e-04
1
# CELL(abcABC):  188.97261   188.97261   188.97261    90.00000    90.00000    90.00000  Step:         165  Bead:       0 kinetic_cv{atomic_unit}  cell{atomic_unit}
       H  6.60068e-04  7.11702e-04  4.82083e-04
1
# CELL(abcABC):  188.97261   188.97261   188.97261    90.00000    90.00000    90.00000  Step:         170  Bead:       0 kinetic_cv{atomic_unit}  cell{atomic_unit}
       H  6.19687e-04  5.82681e-04  4.79660e-04
1
# CELL(abcABC):  188.97261   188.97261   188.97261    90.00000    90.00000    90.00000  Step:         175  Bead:       0 kinetic_cv{atomic_unit}  cell{atomic_unit}
       H  8.82918e-04  5.96859e-04  5.08457e-04
1
# CELL(abcABC):  188.97261   188.97261   188.97261    90.00000    90.00000    90.00000  Step:         180  Bead:       0 kinetic_cv{atomic_unit}  cell{atomic_unit}
       H  6.59714e-04  5.50422e-04  5.19010e-04
1
# CELL(abcABC):  188.97261   188.97261   188.97261    90.00000    90.00000    90.00000  Step:         185  Bead:       0 kinetic_cv{atomic_unit}  cell{atomic_unit}
       H  5.04492e-04  7.04340e-04  5.03188e-04
1
# CELL(abcABC):  188.97261   188.97261   188.97261    90.00000    90.00000    90.00000  Step:         190  Bead:       0 kinetic_cv{atomic_unit}  cell{atomic_unit}
       H  5.59022e-04  5.85409e-04  5.49666e-04
1
# CELL(abcABC):  188.97261   188.97261   188.97261    90.00000    90.00000    90.00000  Step:         195  Bead:       0 kinetic_cv{atomic_unit}  cell{atomic_unit}
       H  7.71173e-04  6.04590e-04  5.23974e-04
1
# CELL(abcABC):  188.97261   188.97261   188.97261    90.00000    90.00000    90.00000  Step:         200  Bead:       0 kinetic_cv{atomic_unit}  cell{atomic_unit}
       H  6.39777e-04  5.75472e-04  4.95451e-04
1
# CELL(abcABC):  188.97261   188.97261   188.97261    90.00000    90.00000    90.00000  Step:         205  Bead:       0 kinetic_cv{atomic_unit}  cell{atomic_unit}
       H  5.74032e-04  5.52629e-04  5.37862e-04
1
# CELL(abcABC):  188.97261   188.97261   188.97261    90.00000    90.00000    90.00000  Step:         210  Bead:       0 kinetic_cv{atomic_unit}  cell{atomic_unit}
       H  5.57782e-04  5.14709e-04  5.11629e-04
1
# CELL(abcABC):  188.97261   188.97261   188.97261    90.00000    90.00000    90.00000  Step:         215  Bead:       0 kinetic_cv{atomic_unit}  cell{atomic_unit}
       H  5.41464e-04  5.30359e-04  5.26007e-04
1
# CELL(abcABC):  188.97261   188.97261   188.97261    90.00000    90.00000    90.00000  Step:         220  Bead:       0 kinetic_cv{atomic_unit}  cell{atomic_unit}
       H  5.65586e-04  5.27589e-04  5.41338e-04
1
# CELL(abcABC):  188.97261   188.97261   188.97261    90.00000    90.00000    90.00000  Step:         225  Bead:       0 kinetic_cv{atomic_unit}  cell{atomic_unit}
       H  6.17185e-04  5.54889e-04  5.50215e-04
1
# CELL(abcABC):  188.97261   188.97261   188.97261    90.00000    90.00000    90.00000  Step:         230  Bead:       0 kinetic_cv{atomic_unit}  cell{atomic_unit}
       H  6.85016e-04  6.05714e-04  6.71187e-04
1
# CELL(abcABC):  188.97261   188.97261   188.97261    90.00000    90.00000    90.00000  Step:         235  Bead:       0 kinetic_cv{atomic_unit}  cell{atomic_unit}
       H  5.85480e-04  8.82145e-04  5.05717e-04
1
# CELL(abcABC):  188.97261   188.97261   188.97261    90.00000    90.00000    90.00000  Step:         240  Bead:       0 kinetic_cv{atomic_unit}  cell{atomic_unit}
       H  6.06380e-04  7.77744e-04  5.08735e-04
1
# CELL(abcABC):  188.97261   188.97261   188.97261    90.00000    90.00000    90.00000  Step:         245  Bead:       0 kinetic_cv{atomic_unit}  cell{atomic_unit}
       H  6.46108e-04  5.06429e-04  4.92910e-04
1
# CELL(abcABC):  188.97261   188.97261   188.97261    90.00000    90.00000    90.00000  Step:         250  Bead:       0 kinetic_cv{atomic_unit}  cell{atomic_unit}
       H  6.05444e-04  5.09256e-04  5.04157e-04
1
# CELL(abcABC):  188.97261   188.97261   188.97261    90.00000    90.00000    90.00000  Step:         255  Bead:       0 kinetic_cv{atomic_unit}  cell{atomic_unit}
       H  6.47775e-04  6.20115e-04  4.87731e-04
1
# CELL(abcABC):  188.97261   188.97261   188.97261    90.00000    90.00000    90.00000  Step:         260  Bead:       0 kinetic_cv{atomic_unit}  cell{atomic_unit}
       H  6.34849e-04  6.04671e-04  4.91967e-04
1
# CELL(abcABC):  188.97261   188.97261   188.97261    90.00000    90.00000    90.00000  Step:         265  Bead:       0 kinetic_cv{atomic_unit}  cell{atomic_unit}
       H  5.74213e-04  5.29687e-04  5.10986e-04
1
# CELL(abcABC):  188.97261   188.97261   188.97261    90.00000    90.00000    90.00000  Step:         270  Bead:       0 kinetic_cv{atomic_unit}  cell{atomic_unit}
       H  6.83597e-04  5.22491e-04  4.94385e-04
1
# CELL(abcABC):  188.97261   188.97261   188.97261    90.00000    90.00000    90.00000  Step:         275  Bead:       0 kinetic_cv{atomic_unit}  cell{atomic_unit}
       H  5.82603e-04  5.47223e-04  4.93724e-04
1
# CELL(abcABC):  188.97261   188.97261   188.97261    90.00000    90.00000    90.00000  Step:         280  Bead:       0 kinetic_cv{atomic_unit}  cell{atomic_unit}
       H  1.07149e-03  6.72975e-04  5.00686e-04
1
# CELL(abcABC):  188.97261   188.97261   188.97261    90.00000    90.00000    90.00000  Step:         285  Bead:       0 kinetic_cv{atomic_unit}  cell{atomic_unit}
       H  7.46760e-04  7.62754e-04  5.04579e-04
1
# CELL(abcABC):  188.97261   188.97261   188.97261    90.00000    90.00000    90.00000  Step:         290  Bead:       0 kinetic_cv{atomic_unit}  cell{atomic_unit}
       H  5.42321e-04  6.08994e-04  5.23451e-04
1
# CELL(abcABC):  188.97261   188.97261   188.97261    90.00000    90.00000    90.00000  Step:         295  Bead:       0 kinetic_cv{atomic_unit}  cell{atomic_unit}
       H  5.60841e-04  5.31757e-04  5.13524e-04
1
# CELL(abcABC):  188.97261   188.97261   188.97261    90.00000    90.00000    90.00000  Step:         300  Bead:       0 kinetic_cv{atomic_unit}  cell{atomic_unit}
       H  5.05826e-04  5.56189e-04  5.13455e-04
1
# CELL(abcABC):  188.97261   188.97261   188.97261    90.00000    90.00000    90.00000  Step:         305  Bead:       0 kinetic_cv{atomic_unit}  cell{atomic_unit}
       H  5.57925e-04  5.92162e-04  5.05297e-04
1
# CELL(abcABC):  188.97261   188.97261   188.97261    90.00000    90.00000    90.00000  Step:         310  Bead:       0 kinetic_cv{atomic_unit}  cell{atomic_unit}
       H  5.95028e-04  5.63357e-04  5.22433e-04
1
# CELL(abcABC):  188.97261   188.97261   188.97261    90.00000    90.00000    90.00000  Step:         315  Bead:       0 kinetic_cv{atomic_unit}  cell{atomic_unit}
       H  7.60731e-04  5.49783e-04  4.87468e-04
1
# CELL(abcABC):  188.97261   188.97261   188.97261    90.00000    90.00000    90.00000  Step:         320  Bead:       0 kinetic_cv{atomic_unit}  cell{atomic_unit}
       H  5.63324e-04  5.86080e-04  4.87903e-04
1
# CELL(abcABC):  188.97261   188.97261   188.97261    90.00000    90.00000    90.00000  Step:         325  Bead:       0 kinetic_cv{atomic_unit}  cell{atomic_unit}
       H  7.45464e-04  7.86894e-04  5.03796e-04
1
# CELL(abcABC):  188.97261   188.97261   188.97261    90.00000    90.00000    90.00000  Step:         330  Bead:       0 kinetic_cv{atomic_unit}  cell{atomic_unit}
       H  6.42734e-04  7.54317e-04  4.91643e-04
1
# CELL(abcABC):  188.97261   188.97261   188.97261    90.00000    90.00000    90.00000  Step:         335  Bead:       0 kinetic_cv{atomic_unit}  cell{atomic_unit}
       H  6.52925e-04  7.43079e-04  5.42652e-04
1
# CELL(abcABC):  188.97261   188.97261   188.97261    90.00000    90.00000    90.00000  Step:         340  Bead:       0 kinetic_cv{atomic_unit}  cell{atomic_unit}
       H  5.12414e-04  5.79101e-04  5.32759e-04
1
# CELL(abcABC):  188.97261   188.97261   188.97261    90.00000    90.00000    90.00000  Step:         345  Bead:       0 kinetic_cv{atomic_unit}  cell{atomic_unit}
       H  8.05859e-04  5.75810e-04  4.87362e-04
1
# CELL(abcABC):  188.97261   188.97261   188.97261    90.00000    90.00000    90.00000  Step:         350  Bead:       0 kinetic_cv{atomic_unit}  cell{atomic_unit}
       H  8.58820e-04  5.03376e-04  5.30142e-04
1
# CELL(abcABC):  188.97261   188.97261   188.97261    90.00000    90.00000    90.00000  Step:         355  Bead:       0 kinetic_cv{atomic_unit}  cell{atomic_unit}
       H  5.80231e-04  6.27761e-04  4.98599e-04
1
# CELL(abcABC):  188.97261   188.97261   188.97261    90.00000    90.00000    90.00000  Step:         360  Bead:       0 kinetic_cv{atomic_unit}  cell{atomic_unit}
       H  6.32200e-04  8.57613e-04  5.31139e-04
1
# CELL(abcABC):  188.97261   188.97261   188.97261    90.00000    90.00000    90.00000  Step:         365  Bead:       0 kinetic_cv{atomic_unit}  cell{atomic_unit}
       H  5.91400e-04  7.74502e-04  5.44730e-04
1
# CELL(abcABC):  188.97261   188.97261   188.97261    90.00000    90.00000    90.00000  Step:         370  Bead:       0 kinetic_cv{atomic_unit}  cell{atomic_unit}
       H  5.75291e-04  6.69299e-04  5.61216e-04
1
# CELL(abcABC):  188.97261   188.97261   188.97261    90.00000    90.00000    90.00000  Step:         375  Bead:       0 kinetic_cv{atomic_unit}  cell{atomic_unit}
       H  7.22248e-04  5.93072e-04  5.01298e-04
1
# CELL(abcABC):  188.97261   188.97261   188.97261    90.00000    90.00000    90.00000  Step:         380  Bead:       0 kinetic_cv{atomic_unit}  cell{atomic_unit}
       H  6.36770e-04  7.21112e-04  4.88393e-04
1
# CELL(abcABC):  188.97261   188.97261   188.97261    90.00000    90.00000    90.00000  Step:         385  Bead:       0 kinetic_cv{atomic_unit}  cell{atomic_unit}
       H  6.24342e-04  5.62024e-04  5.02910e-04
1
# CELL(abcABC):  188.97261   188.97261   188.97261    90.00000    90.00000    90.00000  Step:         390  Bead:       0 kinetic_cv{atomic_unit}  cell{atomic_unit}
       H  5.42100e-04  6.47935e-04  4.93624e-04
1
# CELL(abcABC):  188.97261   188.97261   188.97261    90.00000    90.00000    90.00000  Step:         395  Bead:       0 kinetic_cv{atomic_unit}  cell{atomic_unit}
       H  6.32130e-04  6.10857e-04  4.94733e-04
1
# CELL(abcABC):  188.97261   188.97261   188.97261    90.00000    90.00000    90.00000  Step:         400  Bead:       0 kinetic_cv{atomic_unit}  cell{atomic_unit}
       H  5.46533e-04  5.62617e-04  4.91610e-04
1
# CELL(abcABC):  188.97261   188.97261   188.97261    90.00000    90.00000    90.00000  Step:         405  Bead:       0 kinetic_cv{atomic_unit}  cell{atomic_unit}
       H  6.20312e-04  6.50727e-04  4.83868e-04
1
# CELL(abcABC):  188.97261   188.97261   188.97261    90.00000    90.00000    90.00000  Step:         410  Bead:       0 kinetic_cv{atomic_unit}  cell{atomic_unit}
       H  5.69781e-04  6.36396e-04  4.89179e-04
1
# CELL(abcABC):  188.97261   188.97261   188.97261    90.00000    90.00000    90.00000  Step:         415  Bead:       0 kinetic_cv{atomic_unit}  cell{atomic_unit}
       H  7.54967e-04  5.60043e-04  4.81303e-04
1
# CELL(abcABC):  188.97261   188.97261   188.97261    90.00000    90.00000    90.00000  Step:         420  Bead:       0 kinetic_cv{atomic_unit}  cell{atomic_unit}
       H  8.23926e-04  5.77543e-04  4.81259e-04
1
# CELL(abcABC):  188.97261   188.97261   188.97261    90.00000    90.00000    90.00000  Step:         425  Bead:       0 kinetic_cv{atomic_unit}  cell{atomic_unit}
       H  7.90755e-04  7.17673e-04  4.83960e-04
1
# CELL(abcABC):  188.97261   188.97261   188.97261    90.00000    90.00000    90.00000  Step:         430  Bead:       0 kinetic_cv{atomic_unit}  cell{atomic_unit}
       H  6.02824e-04  5.94989e-04  5.10575e-04
1
# CELL(abcABC):  188.97261   188.97261   188.97261    90.00000    90.00000    90.00000  Step:         435  Bead:       0 kinetic_cv{atomic_unit}  cell{atomic_unit}
       H  8.44850e-04  6.00195e-04  5.06610e-04
1
# CELL(abcABC):  188.97261   188.97261   188.97261    90.00000    90.00000    90.00000  Step:         440  Bead:       0 kinetic_cv{atomic_unit}  cell{atomic_unit}
       H  6.60333e-04  7.68976e-04  5.01100e-04
1
# CELL(abcABC):  188.97261   188.97261   188.97261    90.00000    90.00000    90.00000  Step:         445  Bead:       0 kinetic_cv{atomic_unit}  cell{atomic_unit}
       H  5.36399e-04  5.91598e-04  4.81492e-04
1
# CELL(abcABC):  188.97261   188.97261   188.97261    90.00000    90.00000    90.00000  Step:         450  Bead:       0 kinetic_cv{atomic_unit}  cell{atomic_unit}
       H  6.01696e-04  5.83685e-04  4.79235e-04
1
# CELL(abcABC):  188.97261   188.97261   188.97261    90.00000    90.00000    90.00000  Step:         455  Bead:       0 kinetic_cv{atomic_unit}  cell{atomic_unit}
       H  5.66993e-04  7.13376e-04  4.91882e-04
1
# CELL(abcABC):  188.97261   188.97261   188.97261    90.00000    90.00000    90.00000  Step:         460  Bead:       0 kinetic_cv{atomic_unit}  cell{atomic_unit}
       H  5.97045e-04  7.33551e-04  4.97826e-04
1
# CELL(abcABC):  188.97261   188.97261   188.97261    90.00000    90.00000    90.00000  Step:         465  Bead:       0 kinetic_cv{atomic_unit}  cell{atomic_unit}
       H  6.20361e-04  6.06884e-04  5.00335e-04
1
# CELL(abcABC):  188.97261   188.97261   188.97261    90.00000    90.00000    90.00000  Step:         470  Bead:       0 kinetic_cv{atomic_unit}  cell{atomic_unit}
       H  5.53582e-04  6.75293e-04  4.89366e-04
1
# CELL(abcABC):  188.97261   188.97261   188.97261    90.00000    90.00000    90.00000  Step:         475  Bead:       0 kinetic_cv{atomic_unit}  cell{atomic_unit}
       H  5.98253e-04  5.69541e-04  5.04288e-04
1
# CELL(abcABC):  188.97261   188.97261   188.97261    90.00000    90.00000    90.00000  Step:         480  Bead:       0 kinetic_cv{atomic_unit}  cell{atomic_unit}
       H  8.15759e-04  5.82383e-04  5.17424e-04
1
# CELL(abcABC):  188.97261   188.97261   188.97261    90.00000    90.00000    90.00000  Step:         485  Bead:       0 kinetic_cv{atomic_unit}  cell{atomic_unit}
       H  6.92725e-04  6.11975e-04  5.53865e-04
1
# CELL(abcABC):  188.97261   188.97261   188.97261    90.00000    90.00000    90.00000  Step:         490  Bead:       0 kinetic_cv{atomic_unit}  cell{atomic_unit}
       H  5.56270e-04  5.52064e-04  5.74249e-04
1
# CELL(abcABC):  188.97261   188.97261   188.97261    90.00000    90.00000    90.00000  Step:         495  Bead:       0 kinetic_cv{atomic_unit}  cell{atomic_unit}
       H  5.53276e-04  5.39862e-04  5.29094e-04
1
# CELL(abcABC):  188.97261   188.97261   188.97261    90.00000    90.00000    90.00000  Step:         500  Bead:       0 kinetic_cv{atomic_unit}  cell{atomic_unit}
       H  5.53530e-04  5.43808e-04  5.19668e-04
1
# CELL(abcABC):  188.97261   188.97261   188.97261    90.00000    90.00000    90.00000  Step:         505  Bead:       0 kinetic_cv{atomic_unit}  cell{atomic_unit}
       H  5.77108e-04  8.16042e-04  5.06788e-04
1
# CELL(abcABC):  188.97261   188.97261   188.97261    90.00000    90.00000    90.00000  Step:         510  Bead:       0 kinetic_cv{atomic_unit}  cell{atomic_unit}
       H  5.60934e-04  5.60857e-04  5.31706e-04
1
# CELL(abcABC):  188.97261   188.97261   188.97261    90.00000    90.00000    90.00000  Step:         515  Bead:       0 kinetic_cv{atomic_unit}  cell{atomic_unit}
       H  5.76180e-04  5.54885e-04  5.72093e-04
1
# CELL(abcABC):  188.97261   188.97261   188.97261    90.00000    90.00000    90.00000  Step:         520  Bead:       0 kinetic_cv{atomic_unit}  cell{atomic_unit}
       H  5.56306e-04  8.64541e-04  5.78605e-04
1
# CELL(abcABC):  188.97261   188.97261   188.97261    90.00000    90.00000    90.00000  Step:         525  Bead:       0 kinetic_cv{atomic_unit}  cell{atomic_unit}
       H  8.63789e-04  5.88274e-04  4.97894e-04
1
# CELL(abcABC):  188.97261   188.97261   188.97261    90.00000    90.00000    90.00000  Step:         530  Bead:       0 kinetic_cv{atomic_unit}  cell{atomic_unit}
       H  6.60201e-04  5.89037e-04  5.21988e-04
1
# CELL(abcABC):  188.97261   188.97261   188.97261    90.00000    90.00000    90.00000  Step:         535  Bead:       0 kinetic_cv{atomic_unit}  cell{atomic_unit}
       H  5.81041e-04  7.08585e-04  6.28277e-04
1
# CELL(abcABC):  188.97261   188.97261   188.97261    90.00000    90.00000    90.00000  Step:         540  Bead:       0 kinetic_cv{atomic_unit}  cell{atomic_unit}
       H  6.83417e-04  5.89184e-04  6.47913e-04
1
# CELL(abcABC):  188.97261   188.97261   188.97261    90.00000    90.00000    90.00000  Step:         545  Bead:       0 kinetic_cv{atomic_unit}  cell{atomic_unit}
       H  5.49298e-04  5.68859e-04  5.20492e-04
1
# CELL(abcABC):  188.97261   188.97261   188.97261    90.00000    90.00000    90.00000  Step:         550  Bead:       0 kinetic_cv{atomic_unit}  cell{atomic_unit}
       H  5.17600e-04  5.00809e-04  5.03082e-04
1
# CELL(abcABC):  188.97261   188.97261   188.97261    90.00000    90.00000    90.00000  Step:         555  Bead:       0 kinetic_cv{atomic_unit}  cell{atomic_unit}
       H  5.87567e-04  5.89908e-04  5.07183e-04
1
# CELL(abcABC):  188.97261   188.97261   188.97261    90.00000    90.00000    90.00000  Step:         560  Bead:       0 kinetic_cv{atomic_unit}  cell{atomic_unit}
       H  7.05465e-04  6.49195e-04  4.97640e-04
1
# CELL(abcABC):  188.97261   188.97261   188.97261    90.00000    90.00000    90.00000  Step:         565  Bead:       0 kinetic_cv{atomic_unit}  cell{atomic_unit}
       H  5.96874e-04  5.55611e-04  4.98919e-04
1
# CELL(abcABC):  188.97261   188.97261   188.97261    90.00000    90.00000    90.00000  Step:         570  Bead:       0 kinetic_cv{atomic_unit}  cell{atomic_unit}
       H  7.35799e-04  5.34632e-04  4.90315e-04
1
# CELL(abcABC):  188.97261   188.97261   188.97261    90.00000    90.00000    90.00000  Step:         575  Bead:       0 kinetic_cv{atomic_unit}  cell{atomic_unit}
       H  6.56455e-04  6.56813e-04  4.88046e-04
1
# CELL(abcABC):  188.97261   188.97261   188.97261    90.00000    90.00000    90.00000  Step:         580  Bead:       0 kinetic_cv{atomic_unit}  cell{atomic_unit}
       H  5.45214e-04  5.82530e-04  4.82049e-04
1
# CELL(abcABC):  188.97261   188.97261   188.97261    90.00000    90.00000    90.00000  Step:         585  Bead:       0 kinetic_cv{atomic_unit}  cell{atomic_unit}
       H  5.45199e-04  6.20618e-04  4.83056e-04
1
# CELL(abcABC):  188.97261   188.97261   188.97261    90.00000    90.00000    90.00000  Step:         590  Bead:       0 kinetic_cv{atomic_unit}  cell{atomic_unit}
       H  6.19691e-04  5.88265e-04  4.85847e-04
1
# CELL(abcABC):  188.97261   188.97261   188.97261    90.00000    90.00000    90.00000  Step:         595  Bead:       0 kinetic_cv{atomic_unit}  cell{atomic_unit}
       H  6.09443e-04  6.96686e-04  4.88827e-04
1
# CELL(abcABC):  188.97261   188.97261   188.97261    90.00000    90.00000    90.00000  Step:         600  Bead:       0 kinetic_cv{atomic_unit}  cell{atomic_unit}
       H  6.37356e-04  1.05917e-03  4.97301e-04
1
# CELL(abcABC):  188.97261   188.97261   188.97261    90.00000    90.00000    90.00000  Step:         605  Bead:       0 kinetic_cv{atomic_unit}  cell{atomic_unit}
       H  5.96922e-04  9.60021e-04  4.85576e-04
1
# CELL(abcABC):  188.97261   188.97261   188.97261    90.00000    90.00000    90.00000  Step:         610  Bead:       0 kinetic_cv{atomic_unit}  cell{atomic_unit}
       H  6.21377e-04  6.96922e-04  4.92091e-04
1
# CELL(abcABC):  188.97261   188.97261   188.97261    90.00000    90.00000    90.00000  Step:         615  Bead:       0 kinetic_cv{atomic_unit}  cell{atomic_unit}
       H  5.20545e-04  5.47430e-04  4.95018e-04
1
# CELL(abcABC):  188.97261   188.97261   188.97261    90.00000    90.00000    90.00000  Step:         620  Bead:       0 kinetic_cv{atomic_unit}  cell{atomic_unit}
       H  5.38769e-04  6.13936e-04  4.95180e-04
1
# CELL(abcABC):  188.97261   188.97261   188.97261    90.00000    90.00000    90.00000  Step:         625  Bead:       0 kinetic_cv{atomic_unit}  cell{atomic_unit}
       H  5.55077e-04  5.85459e-04  5.27775e-04
1
# CELL(abcABC):  188.97261   188.97261   188.97261    90.00000    90.00000    90.00000  Step:         630  Bead:       0 kinetic_cv{atomic_unit}  cell{atomic_unit}
       H  5.93517e-04  5.53640e-04  5.01774e-04
1
# CELL(abcABC):  188.97261   188.97261   188.97261    90.00000    90.00000    90.00000  Step:         635  Bead:       0 kinetic_cv{atomic_unit}  cell{atomic_unit}
       H  7.09324e-04  6.74852e-04  4.92344e-04
1
# CELL(abcABC):  188.97261   188.97261   188.97261    90.00000    90.00000    90.00000  Step:         640  Bead:       0 kinetic_cv{atomic_unit}  cell{atomic_unit}
       H  5.63235e-04  5.30990e-04  5.03913e-04
1
# CELL(abcABC):  188.97261   188.97261   188.97261    90.00000    90.00000    90.00000  Step:         645  Bead:       0 kinetic_cv{atomic_unit}  cell{atomic_unit}
       H  6.47924e-04  5.98075e-04  5.30821e-04
1
# CELL(abcABC):  188.97261   188.97261   188.97261    90.00000    90.00000    90.00000  Step:         650  Bead:       0 kinetic_cv{atomic_unit}  cell{atomic_unit}
       H  5.83004e-04  8.33910e-04  4.96776e-04
1
# CELL(abcABC):  188.97261   188.97261   188.97261    90.00000    90.00000    90.00000  Step:         655  Bead:       0 kinetic_cv{atomic_unit}  cell{atomic_unit}
       H  5.77742e-04  8.09818e-04  4.92663e-04
1
# CELL(abcABC):  188.97261   188.97261   188.97261    90.00000    90.00000    90.00000  Step:         660  Bead:       0 kinetic_cv{atomic_unit}  cell{atomic_unit}
       H  5.80978e-04  6.24388e-04  4.83104e-04
1
# CELL(abcABC):  188.97261   188.97261   188.97261    90.00000    90.00000    90.00000  Step:         665  Bead:       0 kinetic_cv{atomic_unit}  cell{atomic_unit}
       H  5.54202e-04  6.75472e-04  4.91069e-04
1
# CELL(abcABC):  188.97261   188.97261   188.97261    90.00000    90.00000    90.00000  Step:         670  Bead:       0 kinetic_cv{atomic_unit}  cell{atomic_unit}
       H  5.86580e-04  6.36302e-04  4.94150e-04
1
# CELL(abcABC):  188.97261   188.97261   188.97261    90.00000    90.00000    90.00000  Step:         675  Bead:       0 kinetic_cv{atomic_unit}  cell{atomic_unit}
       H  6.05646e-04  5.50982e-04  4.88467e-04
1
# CELL(abcABC):  188.97261   188.97261   188.97261    90.00000    90.00000    90.00000  Step:         680  Bead:       0 kinetic_cv{atomic_unit}  cell{atomic_unit}
       H  6.16962e-04  5.34467e-04  4.85287e-04
1
# CELL(abcABC):  188.97261   188.97261   188.97261    90.00000    90.00000    90.00000  Step:         685  Bead:       0 kinetic_cv{atomic_unit}  cell{atomic_unit}
       H  6.31497e-04  6.76993e-04  4.86618e-04
1
# CELL(abcABC):  188.97261   188.97261   188.97261    90.00000    90.00000    90.00000  Step:         690  Bead:       0 kinetic_cv{atomic_unit}  cell{atomic_unit}
       H  5.94433e-04  6.24875e-04  4.87059e-04
1
# CELL(abcABC):  188.97261   188.97261   188.97261    90.00000    90.00000    90.00000  Step:         695  Bead:       0 kinetic_cv{atomic_unit}  cell{atomic_unit}
       H  5.87669e-04  6.52114e-04  4.95312e-04
1