1
# CELL(abcABC):  188.97261   188.97261   188.97261    90.00000    90.00000    90.00000  Step:           0  Bead:       0 kinetic_cv{atomic_unit}  cell{atomic_unit}
       H  4.75022e-04  4.75022e-04  4.75022e-04
1
# CELL(abcABC):  188.97261   188.97261   188.97261    90.00000    90.00000    90.00000  Step:           5  Bead:       0 kinetic_cv{atomic_unit}  cell{atomic_unit}
       H  4.92420e-04  5.20220e-04  5.18528e-04
1
# CELL(abcABC):  188.97261   188.97261   188.97261    90.00000    90.00000    90.00000  Step:          10  Bead:       0 kinetic_cv{atomic_unit}  cell{atomic_unit}
       H  5.90526e-04  5.47190e-04  5.69160e-04
1
# CELL(abcABC):  188.97261   188.97261   188.97261    90.00000    90.00000    90.00000  Step:          15  Bead:       0 kinetic_cv{atomic_unit}  cell{atomic_unit}
       H  5.16268e-04  5.09315e-04  5.02328e-04
1
# CELL(abcABC):  188.97261   188.97261   188.97261    90.00000    90.00000    90.00000  Step:          20  Bead:       0 kinetic_cv{atomic_unit}  cell{atomic_unit}
       H  5.00681e-04  5.93864e-04  5.18763e-04
1
# CELL(abcABC):  188.97261   188.97261   188.97261    90.00000    90.00000    90.00000  Step:          25  Bead:       0 kinetic_cv{atomic_unit}  cell{atomic_unit}
       H  5.66456e-04  5.69170e-04  5.60554e-04
1
# CELL(abcABC):  188.97261   188.97261   188.97261    90.00000    90.00000    90.00000  Step:          30  Bead:       0 kinetic_cv{atomic_unit}  cell{atomic_unit}
       H  5.38706e-04  5.59171e-04  5.22117e-04
1
# CELL(abcABC):  188.97261   188.97261   188.97261    90.00000    90.00000    90.00000  Step:          35  Bead:       0 kinetic_cv{atomic_unit}  cell{atomic_unit}
       H  7.25087e-04  5.30175e-04  5.37262e-04
1
# CELL(abcABC):  188.97261   188.97261   188.97261    90.00000    90.00000    90.00000  Step:          40  Bead:       0 kinetic_cv{atomic_unit}  cell{atomic_unit}
       H  5.91065e-04  5.62462e-04  5.45675e-04
1
# CELL(abcABC):  188.97261   188.97261   188.97261    90.00000    90.00000    90.00000  Step:          45  Bead:       0 kinetic_cv{atomic_unit}  cell{atomic_unit}
       H  6.30732e-04  6.05315e-04  5.06457e-04
1
# CELL(abcABC):  188.97261   188.97261   188.97261    90.00000    90.00000    90.00000  Step:          50  Bead:       0 kinetic_cv{atomic_unit}  cell{atomic_unit}
       H  6.14750e-04  5.90320e-04  5.66018e-04
1
# CELL(abcABC):  188.97261   188.97261   188.97261    90.00000    90.00000    90.00000  Step:          55  Bead:       0 kinetic_cv{atomic_unit}  cell{atomic_unit}
       H  6.00715e-04  5.85090e-04  5.43746e-04
1
# CELL(abcABC):  188.97261   188.97261   188.97261    90.00000    90.00000    90.00000  Step:          60  Bead:       0 kinetic_cv{atomic_unit}  cell{atomic_unit}
       H  4.94885e-04  1.06127e-03  5.33724e-04
1
# CELL(abcABC):  188.97261   188.97261   188.97261    90.00000    90.00000    90.00000  Step:          65  Bead:       0 kinetic_cv{atomic_unit}  cell{atomic_unit}
       H  5.69712e-04  5.74835e-04  5.29367e-04
1
# CELL(abcABC):  188.97261   188.97261   188.97261    90.00000    90.00000    90.00000  Step:          70  Bead:       0 kinetic_cv{atomic_unit}  cell{atomic_unit}
       H  5.84678e-04  6.40494e-04  5.31138e-04
1
# CELL(abcABC):  188.97261   188.97261   188.97261    90.00000    90.00000    90.00000  Step:          75  Bead:       0 kinetic_cv{atomic_unit}  cell{atomic_unit}
       H  5.73052e-04  5.31906e-04  5.36746e-04
1
# CELL(abcABC):  188.97261   188.97261   188.97261    90.00000    90.00000    90.00000  Step:          80  Bead:       0 kinetic_cv{atomic_unit}  cell{atomic_unit}
       H  5.45955e-04  5.14514e-04  5.09321e-04
1
# CELL(abcABC):  188.97261   188.97261   188.97261    90.00000    90.00000    90.00000  Step:          85  Bead:       0 kinetic_cv{atomic_unit}  cell{atomic_unit}
       H  6.24873e-04  5.17838e-04  4.93366e-04
1
# CELL(abcABC):  188.97261   188.97261   188.97261    90.00000    90.00000    90.00000  Step:          90  Bead:       0 kinetic_cv{atomic_unit}  cell{atomic_unit}
       H  5.42532e-04  5.19726e-04  5.06902e-04
1
# CELL(abcABC):  188.97261   188.97261   188.97261    90.00000    90.00000    90.00000  Step:          95  Bead:       0 kinetic_cv{atomic_unit}  cell{atomic_unit}
       H  5.03723e-04  5.01598e-04  4.92232e-04
1
# CELL(abcABC):  188.97261   188.97261   188.97261    90.00000    90.00000    90.00000  Step:         100  Bead:       0 kinetic_cv{atomic_unit}  cell{atomic_unit}
       H  5.78531e-04  6.39328e-04  4.79114e-04
1
# CELL(abcABC):  188.97261   188.97261   188.97261    90.00000    90.00000    90.00000  Step:         105  Bead:       0 kinetic_cv{atomic_unit}  cell{atomic_unit}
       H  6.10157e-04  6.46970e-04  4.80193e-04
1
# CELL(abcABC):  188.97261   188.97261   188.97261    90.00000    90.00000    90.00000  Step:         110  Bead:       0 kinetic_cv{atomic_unit}  cell{atomic_unit}
       H  5.94615e-04  5.78169e-04  4.84430e-04
1
# CELL(abcABC):  188.97261   188.97261   188.97261    90.00000    90.00000    90.00000  Step:         115  Bead:       0 kinetic_cv{atomic_unit}  cell{atomic_unit}
       H  5.19957e-04  5.36187e-04  5.03915e-04
1
# CELL(abcABC):  188.97261   188.97261   188.97261    90.00000    90.00000    90.00000  Step:         120  Bead:       0 kinetic_cv{atomic_unit}  cell{atomic_unit}
       H  6.09929e-04  5.01333e-04  4.92737e-04
1
# CELL(abcABC):  188.97261   188.97261   188.97261    90.00000    90.00000    90.00000  Step:         125  Bead:       0 kinetic_cv{atomic_unit}  cell{atomic_unit}
       H  5.39200e-04  6.18632e-04  5.01974e-04
1
# CELL(abcABC):  188.97261   188.97261   188.97261    90.00000    90.00000    90.00000  Step:         130  Bead:       0 kinetic_cv{atomic_unit}  cell{atomic_unit}
       H  5.89957e-04  5.37312e-04  5.08118e-04
1
# CELL(abcABC):  188.97261   188.97261   188.97261    90.00000    90.00000    90.00000  Step:         135  Bead:       0 kinetic_cv{atomic_unit}  cell{atomic_unit}
       H  5.88214e-04  5.36823e-04  5.04141e-04
1
# CELL(abcABC):  188.97261   188.97261   188.97261    90.00000    90.00000    90.00000  Step:         140  Bead:       0 kinetic_cv{atomic_unit}  cell{atomic_unit}
       H  5.55484e-04  6.69121e-04  5.29065e-04
1
# CELL(abcABC):  188.97261   188.97261   188.97261    90.00000    90.00000    90.00000  Step:         145  Bead:       0 kinetic_cv{atomic_unit}  cell{atomic_unit}
       H  6.66548e-04  5.11482e-04  4.92730e-04
1
# CELL(abcABC):  188.97261   188.97261   188.97261    90.00000    90.00000    90.00000  Step:         150  Bead:       0 kinetic_cv{atomic_unit}  cell{atomic_unit}
       H  6.51467e-04  5.61439e-04  5.03824e-04
1
# CELL(abcABC):  188.97261   188.97261   188.97261    90.00000    90.00000    90.00000  Step:         155  Bead:       0 kinetic_cv{atomic_unit}  cell{atomic_unit}
       H  5.88538e-04  5.33715e-04  4.85255e-04
1
# CELL(abcABC):  188.97261   188.97261   188.97261    90.00000    90.00000    90.00000  Step:         160  Bead:       0 kinetic_cv{atomic_unit}  cell{atomic_unit}
       H  6.07781e-04  5.85622e-04  4.87814e-04
1
# CELL(abcABC):  188.97261   188.97261   188.97261    90.00000    90.00000    90.00000  Step:         165  Bead:       0 kinetic_cv{atomic_unit}  cell{atomic_unit}
       H  5.71378e-04  5.43384e-04  4.77980e-04
1
# CELL(abcABC):  188.97261   188.97261   188.97261    90.00000    90.00000    90.00000  Step:         170  Bead:       0 kinetic_cv{atomic_unit}  cell{atomic_unit}
       H  5.45282e-04  7.44773e-04  4.79519e-04
1
# CELL(abcABC):  188.97261   188.97261   188.97261    90.00000    90.00000    90.00000  Step:         175  Bead:       0 kinetic_cv{atomic_unit}  cell{atomic_unit}
       H  5.47648e-04  6.32732e-04  4.80559e-04
1
# CELL(abcABC):  188.97261   188.97261   188.97261    90.00000    90.00000    90.00000  Step:         180  Bead:       0 kinetic_cv{atomic_unit}  cell{atomic_unit}
       H  5.46793e-04  5.33774e-04  4.82392e-04
1
# CELL(abcABC):  188.97261   188.97261   188.97261    90.00000    90.00000    90.00000  Step:         185  Bead:       0 kinetic_cv{atomic_unit}  cell{atomic_unit}
       H  6.03776e-04  6.38007e-04  4.81541e-04
1
# CELL(abcABC):  188.97261   188.97261   188.97261    90.00000    90.00000    90.00000  Step:         190  Bead:       0 kinetic_cv{atomic_unit}  cell{atomic_unit}
       H  5.41666e-04  5.57352e-04  4.82669e-04
1
# CELL(abcABC):  188.97261   188.97261   188.97261    90.00000    90.00000    90.00000  Step:         195  Bead:       0 kinetic_cv{atomic_unit}  cell{atomic_unit}
       H  6.55305e-04  6.47007e-04  4.87524e-04
1
# CELL(abcABC):  188.97261   188.97261   188.97261    90.00000    90.00000    90.00000  Step:         200  Bead:       0 kinetic_cv{atomic_unit}  cell{atomic_unit}
       H  6.60527e-04  5.41450e-04  4.78960e-04
1
# CELL(abcABC):  188.97261   188.97261   188.97261    90.00000    90.00000    90.00000  Step:         205  Bead:       0 kinetic_cv{atomic_unit}  cell{atomic_unit}
       H  5.92263e-04  6.23094e-04  4.84110e-04
1
# CELL(abcABC):  188.97261   188.97261   188.97261    90.00000    90.00000    90.00000  Step:         210  Bead:       0 kinetic_cv{atomic_unit}  cell{atomic_unit}
       H  5.86177e-04  5.35829e-04  4.79336e-04
1
# CELL(abcABC):  188.97261   188.97261   188.97261    90.00000    90.00000    90.00000  Step:         215  Bead:       0 kinetic_cv{atomic_unit}  cell{atomic_unit}
       H  6.20641e-04  5.47638e-04  4.77750e-04
1
# CELL(abcABC):  188.97261   188.97261   188.97261    90.00000    90.00000    90.00000  Step:         220  Bead:       0 kinetic_cv{atomic_unit}  cell{atomic_unit}
       H  5.64558e-04  5.15742e-04  4.82441e-04
1
# CELL(abcABC):  188.97261   188.97261   188.97261    90.00000    90.00000    90.00000  Step:         225  Bead:       0 kinetic_cv{atomic_unit}  cell{atomic_unit}
       H  5.13918e-04  5.75217e-04  4.86999e-04
1
# CELL(abcABC):  188.97261   188.97261   188.97261    90.00000    90.00000    90.00000  Step:         230  Bead:       0 kinetic_cv{atomic_unit}  cell{atomic_unit}
       H  5.28904e-04  6.03548e-04  4.85911e-04
1
# CELL(abcABC):  188.97261   188.97261   188.97261    90.00000    90.00000    90.00000  Step:         235  Bead:       0 kinetic_cv{atomic_unit}  cell{atomic_unit}
       H  5.53939e-04  5.83172e-04  4.79331e-04
1
# CELL(abcABC):  188.97261   188.97261   188.97261    90.00000    90.00000    90.00000  Step:         240  Bead:       0 kinetic_cv{atomic_unit}  cell{atomic_unit}
       H  5.26159e-04  6.18650e-04  4.86438e-04
1
# CELL(abcABC):  188.97261   188.97261   188.97261    90.00000    90.00000    90.00000  Step:         245  Bead:       0 kinetic_cv{atomic_unit}  cell{atomic_unit}
       H  5.77040e-04  5.70918e-04  4.89223e-04
1
# CELL(abcABC):  188.97261   188.97261   188.97261    90.00000    90.00000    90.00000  Step:         250  Bead:       0 kinetic_cv{atomic_unit}  cell{atomic_unit}
       H  5.73075e-04  5.85760e-04  4.95383e-04
1
# CELL(abcABC):  188.97261   188.97261   188.97261    90.00000    90.00000    90.00000  Step:         255  Bead:       0 kinetic_cv{atomic_unit}  cell{atomic_unit}
       H  6.09546e-04  5.50192e-04  4.84495e-04
1
# CELL(abcABC):  188.97261   188.97261   188.97261    90.00000    90.00000    90.00000  Step:         260  Bead:       0 kinetic_cv{atomic_unit}  cell{atomic_unit}
       H  5.27076e-04  5.52965e-04  4.76760e-04
1
# CELL(abcABC):  188.97261   188.97261   188.97261    90.00000    90.00000    90.00000  Step:         265  Bead:       0 kinetic_cv{atomic_unit}  cell{atomic_unit}
       H  5.90570e-04  6.29400e-04  4.83163e-04
1
# CELL(abcABC):  188.97261   188.97261   188.97261    90.00000    90.00000    90.00000  Step:         270  Bead:       0 kinetic_cv{atomic_unit}  cell{atomic_unit}
       H  5.71414e-04  5.29383e-04  4.99324e-04
1
# CELL(abcABC):  188.97261   188.97261   188.97261    90.00000    90.00000    90.00000  Step:         275  Bead:       0 kinetic_cv{atomic_unit}  cell{atomic_unit}
       H  6.23800e-04  5.77993e-04  4.85874e-04
1
# CELL(abcABC):  188.97261   188.97261   188.97261    90.00000    90.00000    90.00000  Step:         280  Bead:       0 kinetic_cv{atomic_unit}  cell{atomic_unit}
       H  5.65160e-04  8.33690e-04  4.81629e-04
1
# CELL(abcABC):  188.97261   188.97261   188.97261    90.00000    90.00000    90.00000  Step:         285  Bead:       0 kinetic_cv{atomic_unit}  cell{atomic_unit}
       H  6.27728e-04  5.61427e-04  4.88122e-04
1
# CELL(abcABC):  188.97261   188.97261   188.97261    90.00000    90.00000    90.00000  Step:         290  Bead:       0 kinetic_cv{atomic_unit}  cell{atomic_unit}
       H  5.86432e-04  5.61797e-04  4.82375e-04
1
# CELL(abcABC):  188.97261   188.97261   188.97261    90.00000    90.00000    90.00000  Step:         295  Bead:       0 kinetic_cv{atomic_unit}  cell{atomic_unit}
       H  5.77815e-04  6.44781e-04  4.85178e-04
1
# CELL(abcABC):  188.97261   188.97261   188.97261    90.00000    90.00000    90.00000  Step:         300  Bead:       0 kinetic_cv{atomic_unit}  cell{atomic_unit}
       H  6.93914e-04  5.84048e-04  4.80594e-04
1
# CELL(abcABC):  188.97261   188.97261   188.97261    90.00000    90.00000    90.00000  Step:         305  Bead:       0 kinetic_cv{atomic_unit}  cell{atomic_unit}
       H  5.71161e-04  5.91632e-04  4.87242e-04
1
# CELL(abcABC):  188.97261   188.97261   188.97261    90.00000    90.00000    90.00000  Step:         310  Bead:       0 kinetic_cv{atomic_unit}  cell{atomic_unit}
       H  5.43499e-04  5.08115e-04  4.85037e-04
1
# CELL(abcABC):  188.97261   188.97261   188.97261    90.00000    90.00000    90.00000  Step:         315  Bead:       0 kinetic_cv{atomic_unit}  cell{atomic_unit}
       H  5.85047e-04  5.16830e-04  4.80605e-04
1
# CELL(abcABC):  188.97261   188.97261   188.97261    90.00000    90.00000    90.00000  Step:         320  Bead:       0 kinetic_cv{atomic_unit}  cell{atomic_unit}
       H  5.49599e-04  5.26711e-04  4.88631e-04
1
# CELL(abcABC):  188.97261   188.97261   188.97261    90.00000    90.00000    90.00000  Step:         325  Bead:       0 kinetic_cv{atomic_unit}  cell{atomic_unit}
       H  5.51406e-04  5.59643e-04  5.03092e-04
1
# CELL(abcABC):  188.97261   188.97261   188.97261    90.00000    90.00000    90.00000  Step:         330  Bead:       0 kinetic_cv{atomic_unit}  cell{atomic_unit}
       H  5.39771e-04  5.47911e-04  5.16429e-04
1
# CELL(abcABC):  188.97261   188.97261   188.97261    90.00000    90.00000    90.00000  Step:         335  Bead:       0 kinetic_cv{atomic_unit}  cell{atomic_unit}
       H  5.84124e-04  5.54578e-04  4.79937e-04
1
# CELL(abcABC):  188.97261   188.97261   188.97261    90.00000    90.00000    90.00000  Step:         340  Bead:       0 kinetic_cv{atomic_unit}  cell{atomic_unit}
       H  6.15391e-04  5.58994e-04  5.00816e-04
1
# CELL(abcABC):  188.97261   188.97261   188.97261    90.00000    90.00000    90.00000  Step:         345  Bead:       0 kinetic_cv{atomic_unit}  cell{atomic_unit}
       H  7.01538e-04  5.81424e-04  4.96649e-04
1
# CELL(abcABC):  188.97261   188.97261   188.97261    90.00000    90.00000    90.00000  Step:         350  Bead:       0 kinetic_cv{atomic_unit}  cell{atomic_unit}
       H  5.14176e-04  6.18580e-04  5.08535e-04
1
# CELL(abcABC):  188.97261   188.97261   188.97261    90.00000    90.00000    90.00000  Step:         355  Bead:       0 kinetic_cv{atomic_unit}  cell{atomic_unit}
       H  6.07115e-04  5.43320e-04  4.86177e-04
1
# CELL(abcABC):  188.97261   188.97261   188.97261    90.00000    90.00000    90.00000  Step:         360  Bead:       0 kinetic_cv{atomic_unit}  cell{atomic_unit}
       H  6.33721e-04  5.58621e-04  5.24735e-04
1
# CELL(abcABC):  188.97261   188.97261   188.97261    90.00000    90.00000    90.00000  Step:         365  Bead:       0 kinetic_cv{atomic_unit}  cell{atomic_unit}
       H  6.35972e-04  6.35330e-04  5.34566e-04
1
# CELL(abcABC):  188.97261   188.97261   188.97261    90.00000    90.00000    90.00000  Step:         370  Bead:       0 kinetic_cv{atomic_unit}  cell{atomic_unit}
       H  5.65527e-04  5.36173e-04  5.13106e-04
1
# CELL(abcABC):  188.97261   188.97261   188.97261    90.00000    90.00000    90.00000  Step:         375  Bead:       0 kinetic_cv{atomic_unit}  cell{atomic_unit}
       H  6.20707e-04  5.86429e-04  6.25834e-04
1
# CELL(abcABC):  188.97261   188.97261   188.97261    90.00000    90.00000    90.00000  Step:         380  Bead:       0 kinetic_cv{atomic_unit}  cell{atomic_unit}
       H  5.01440e-04  5.54466e-04  5.56398e-04
1
# CELL(abcABC):  188.97261   188.97261   188.97261    90.00000    90.00000    90.00000  Step:         385  Bead:       0 kinetic_cv{atomic_unit}  cell{atomic_unit}
       H  5.18134e-04  6.26012e-04  5.42302e-04
1
# CELL(abcABC):  188.97261   188.97261   188.97261    90.00000    90.00000    90.00000  Step:         390  Bead:       0 kinetic_cv{atomic_unit}  cell{atomic_unit}
       H  6.15641e-04  5.62597e-04  5.24961e-04
1
# CELL(abcABC):  188.97261   188.97261   188.97261    90.00000    90.00000    90.00000  Step:         395  Bead:       0 kinetic_cv{atomic_unit}  cell{atomic_unit}
       H  6.38471e-04  6.54074e-04  5.05583e-04
1
# CELL(abcABC):  188.97261   188.97261   188.97261    90.00000    90.00000    90.00000  Step:         400  Bead:       0 kinetic_cv{atomic_unit}  cell{atomic_unit}
       H  5.45121e-04  6.18677e-04  5.00964e-04
1
# CELL(abcABC):  188.97261   188.97261   188.97261    90.00000    90.00000    90.00000  Step:         405  Bead:       0 kinetic_cv{atomic_unit}  cell{atomic_unit}
       H  5.94127e-04  8.83961e-04  5.09587e-04
1
# CELL(abcABC):  188.97261   188.97261   188.97261    90.00000    90.00000    90.00000  Step:         410  Bead:       0 kinetic_cv{atomic_unit}  cell{atomic_unit}
       H  5.58239e-04  5.73996e-04  5.19382e-04
1
# CELL(abcABC):  188.97261   188.97261   188.97261    90.00000    90.00000    90.00000  Step:         415  Bead:       0 kinetic_cv{atomic_unit}  cell{atomic_unit}
       H  5.73284e-04  5.16954e-04  5.09037e-04
1
# CELL(abcABC):  188.97261   188.97261   188.97261    90.00000    90.00000    90.00000  Step:         420  Bead:       0 kinetic_cv{atomic_unit}  cell{atomic_unit}
       H  5.20407e-04  5.42166e-04  4.82852e-04
1
# CELL(abcABC):  188.97261   188.97261   188.97261    90.00000    90.00000    90.00000  Step:         425  Bead:       0 kinetic_cv{atomic_unit}  cell{atomic_unit}
       H  5.61589e-04  5.67284e-04  4.86004e-04
1
# CELL(abcABC):  188.97261   188.97261   188.97261    90.00000    90.00000    90.00000  Step:         430  Bead:       0 kinetic_cv{atomic_unit}  cell{atomic_unit}
       H  6.10038e-04  6.14250e-04  4.89508e-04
1
# CELL(abcABC):  188.97261   188.97261   188.97261    90.00000    90.00000    90.00000  Step:         435  Bead:       0 kinetic_cv{atomic_unit}  cell{atomic_unit}
       H  5.76084e-04  5.22334e-04  4.87397e-04
1
# CELL(abcABC):  188.97261   188.97261   188.97261    90.00000    90.00000    90.00000  Step:         440  Bead:       0 kinetic_cv{atomic_unit}  cell{atomic_unit}
       H  7.95288e-04  5.24025e-04  5.06642e-04
1
# CELL(abcABC):  188.97261   188.97261   188.97261    90.00000    90.00000    90.00000  Step:         445  Bead:       0 kinetic_cv{atomic_unit}  cell{atomic_unit}
       H  5.21860e-04  4.97987e-04  5.42433e-04
1
# CELL(abcABC):  188.97261   188.97261   188.97261    90.00000    90.00000    90.00000  Step:         450  Bead:       0 kinetic_cv{atomic_unit}  cell{atomic_unit}
       H  6.27032e-04  5.37933e-04  5.00754e-04
1
# CELL(abcABC):  188.97261   188.97261   188.97261    90.00000    90.00000    90.00000  Step:         455  Bead:       0 kinetic_cv{atomic_unit}  cell{atomic_unit}
       H  8.23138e-04  5.31500e-04  5.53737e-04
1
# CELL(abcABC):  188.97261   188.97261   188.97261    90.00000    90.00000    90.00000  Step:         460  Bead:       0 kinetic_cv{atomic_unit}  cell{atomic_unit}
       H  5.22885e-04  5.90751e-04  5.01715e-04
1
# CELL(abcABC):  188.97261   188.97261   188.97261    90.00000    90.00000    90.00000  Step:         465  Bead:       0 kinetic_cv{atomic_unit}  cell{atomic_unit}
       H  6.12647e-04  5.37171e-04  4.98949e-04
1
# CELL(abcABC):  188.97261   188.97261   188.97261    90.00000    90.00000    90.00000  Step:         470  Bead:       0 kinetic_cv{atomic_unit}  cell{atomic_unit}
       H  5.15830e-04  5.41150e-04  4.94999e-04
1
# CELL(abcABC):  188.97261   188.97261   188.97261    90.00000    90.00000    90.00000  Step:         475  Bead:       0 kinetic_cv{atomic_unit}  cell{atomic_unit}
       H  5.99241e-04  5.23613e-04  5.00368e-04
1
# CELL(abcABC):  188.97261   188.97261   188.97261    90.00000    90.00000    90.00000  Step:         480  Bead:       0 kinetic_cv{atomic_unit}  cell{atomic_unit}
       H  5.37930e-04  6.12933e-04  4.92638e-04
1
# CELL(abcABC):  188.97261   188.97261   188.97261    90.00000    90.00000    90.00000  Step:         485  Bead:       0 kinetic_cv{atomic_unit}  cell{atomic_unit}
       H  7.31105e-04  6.70786e-04  4.91695e-04
1
# CELL(abcABC):  188.97261   188.97261   188.97261    90.00000    90.00000    90.00000  Step:         490  Bead:       0 kinetic_cv{atomic_unit}  cell{atomic_unit}
       H  5.81842e-04  5.41060e-04  4.81888e-04
1
# CELL(abcABC):  188.97261   188.97261   188.97261    90.00000    90.00000    90.00000  Step:         495  Bead:       0 kinetic_cv{atomic_unit}  cell{atomic_unit}
       H  5.68195e-04  5.74637e-04  4.81066e-04
1
# CELL(abcABC):  188.97261   188.97261   188.97261    90.00000    90.00000    90.00000  Step:         500  Bead:       0 kinetic_cv{atomic_unit}  cell{atomic_unit}
       H  6.42409e-04  5.66616e-04  4.97770e-04
1
# CELL(abcABC):  188.97261   188.97261   188.97261    90.00000    90.00000    90.00000  Step:         505  Bead:       0 kinetic_cv{atomic_unit}  cell{atomic_unit}
       H  6.29999e-04  6.28590e-04  4.95455e-04
1
# CELL(abcABC):  188.97261   188.97261   188.97261    90.00000    90.00000    90.00000  Step:         510  Bead:       0 kinetic_cv{atomic_unit}  cell{atomic_unit}
       H  7.06864e-04  6.24417e-04  4.86570e-04
1
# CELL(abcABC):  188.97261   188.97261   188.97261    90.00000    90.00000    90.00000  Step:         515  Bead:       0 kinetic_cv{atomic_unit}  cell{atomic_unit}
       H  5.70309e-04  6.83355e-04  4.90502e-04
1
# CELL(abcABC):  188.97261   188.97261   188.97261    90.00000    90.00000    90.00000  Step:         520  Bead:       0 kinetic_cv{atomic_unit}  cell{atomic_unit}
       H  5.41923e-04  5.27327e-04  4.85639e-04
1
# CELL(abcABC):  188.97261   188.97261   188.97261    90.00000    90.00000    90.00000  Step:         525  Bead:       0 kinetic_cv{atomic_unit}  cell{atomic_unit}
       H  5.67961e-04  5.64292e-04  5.06594e-04
1
# CELL(abcABC):  188.97261   188.97261   188.97261    90.00000    90.00000    90.00000  Step:         530  Bead:       0 kinetic_cv{atomic_unit}  cell{atomic_unit}
       H  8.80248e-04  5.59937e-04  5.03038e-04
1
# CELL(abcABC):  188.97261   188.97261   188.97261    90.00000    90.00000    90.00000  Step:         535  Bead:       0 kinetic_cv{atomic_unit}  cell{atomic_unit}
       H  6.75524e-04  5.61779e-04  5.07945e-04
1
# CELL(abcABC):  188.97261   188.97261   188.97261    90.00000    90.00000    90.00000  Step:         540  Bead:       0 kinetic_cv{atomic_unit}  cell{atomic_unit}
       H  5.57143e-04  6.97395e-04  5.16897e-04
1
# CELL(abcABC):  188.97261   188.97261   188.97261    90.00000    90.00000    90.00000  Step:         545  Bead:       0 kinetic_cv{atomic_unit}  cell{atomic_unit}
       H  5.75076e-04  5.28614e-04  5.27313e-04
1
# CELL(abcABC):  188.97261   188.97261   188.97261    90.00000    90.00000    90.00000  Step:         550  Bead:       0 kinetic_cv{atomic_unit}  cell{atomic_unit}
       H  5.44678e-04  5.73456e-04  5.73316e-04
1
# CELL(abcABC):  188.97261   188.97261   188.97261    90.00000    90.00000    90.00000  Step:         555  Bead:       0 kinetic_cv{atomic_unit}  cell{atomic_unit}
       H  5.42533e-04  7.59686e-04  7.82981e-04
1
# CELL(abcABC):  188.97261   188.97261   188.97261    90.00000    90.00000    90.00000  Step:         560  Bead:       0 kinetic_cv{atomic_unit}  cell{atomic_unit}
       H  5.50572e-04  5.23326e-04  6.15775e-04
1
# CELL(abcABC):  188.97261   188.97261   188.97261    90.00000    90.00000    90.00000  Step:         565  Bead:       0 kinetic_cv{atomic_unit}  cell{atomic_unit}
       H  5.25871e-04  5.01918e-04  5.71151e-04
1
# CELL(abcABC):  188.97261   188.97261   188.97261    90.00000    90.00000    90.00000  Step:         570  Bead:       0 kinetic_cv{atomic_unit}  cell{atomic_unit}
       H  5.38365e-04  7.09318e-04  5.28714e-04
1
# CELL(abcABC):  188.97261   188.97261   188.97261    90.00000    90.00000    90.00000  Step:         575  Bead:       0 kinetic_cv{atomic_unit}  cell{atomic_unit}
       H  5.33107e-04  5.61435e-04  4.98378e-04
1
# CELL(abcABC):  188.97261   188.97261   188.97261    90.00000    90.00000    90.00000  Step:         580  Bead:       0 kinetic_cv{atomic_unit}  cell{atomic_unit}
       H  5.15365e-04  5.77628e-04  4.85250e-04
1
# CELL(abcABC):  188.97261   188.97261   188.97261    90.00000    90.00000    90.00000  Step:         585  Bead:       0 kinetic_cv{atomic_unit}  cell{atomic_unit}
       H  5.55270e-04  6.73871e-04  4.91123e-04
1
# CELL(abcABC):  188.97261   188.97261   188.97261    90.00000    90.00000    90.00000  Step:         590  Bead:       0 kinetic_cv{atomic_unit}  cell{atomic_unit}
       H  5.16407e-04  5.58946e-04  4.81628e-04
1
# CELL(abcABC):  188.97261   188.97261   188.97261    90.00000    90.00000    90.00000  Step:         595  Bead:       0 kinetic_cv{atomic_unit}  cell{atomic_unit}
       H  6.22693e-04  6.28656e-04  4.82850e-04
1
# CELL(abcABC):  188.97261   188.97261   188.97261    90.00000    90.00000    90.00000  Step:         600  Bead:       0 kinetic_cv{atomic_unit}  cell{atomic_unit}
       H  5.27707e-04  6.40925e-04  4.79524e-04
1
# CELL(abcABC):  188.97261   188.97261   188.97261    90.00000    90.00000    90.00000  Step:         605  Bead:       0 kinetic_cv{atomic_unit}  cell{atomic_unit}
       H  5.76138e-04  5.34004e-04  4.87263e-04
1
# CELL(abcABC):  188.97261   188.97261   188.97261    90.00000    90.00000    90.00000  Step:         610  Bead:       0 kinetic_cv{atomic_unit}  cell{atomic_unit}
       H  5.54351e-04  6.18278e-04  5.02418e-04
1
# CELL(abcABC):  188.97261   188.97261   188.97261    90.00000    90.00000    90.00000  Step:         615  Bead:       0 kinetic_cv{atomic_unit}  cell{atomic_unit}
       H  5.40947e-04  6.31036e-04  4.79906e-04
1
# CELL(abcABC):  188.97261   188.97261   188.97261    90.00000    90.00000    90.00000  Step:         620  Bead:       0 kinetic_cv{atomic_unit}  cell{atomic_unit}
       H  6.00606e-04  7.03152e-04  5.12787e-04
1
# CELL(abcABC):  188.97261   188.97261   188.97261    90.00000    90.00000    90.00000  Step:         625  Bead:       0 kinetic_cv{atomic_unit}  cell{atomic_unit}
       H  6.07343e-04  5.29534e-04  4.90961e-04
1
# CELL(abcABC):  188.97261   188.97261   188.97261    90.00000    90.00000    90.00000  Step:         630  Bead:       0 kinetic_cv{atomic_unit}  cell{atomic_unit}
       H  5.81607e-04  6.78192e-04  5.49304e-04
1
# CELL(abcABC):  188.97261   188.97261   188.97261    90.00000    90.00000    90.00000  Step:         635  Bead:       0 kinetic_cv{atomic_unit}  cell{atomic_unit}
       H  5.82905e-04  5.13381e-04  5.16881e-04
1
# CELL(abcABC):  188.97261   188.97261   188.97261    90.00000    90.00000    90.00000  Step:         640  Bead:       0 kinetic_cv{atomic_unit}  cell{atomic_unit}
       H  6.52227e-04  5.24435e-04  5.55303e-04
1
# CELL(abcABC):  188.97261   188.97261   188.97261    90.00000    90.00000    90.00000  Step:         645  Bead:       0 kinetic_cv{atomic_unit}  cell{atomic_unit}
       H  6.60027e-04  6.20502e-04  6.08120e-04
1
# CELL(abcABC):  188.97261   188.97261   188.97261    90.00000    90.00000    90.00000  Step:         650  Bead:       0 kinetic_cv{atomic_unit}  cell{atomic_unit}
       H  5.81411e-04  6.84996e-04  5.07659e-04
1
# CELL(abcABC):  188.97261   188.97261   188.97261    90.00000    90.00000    90.00000  Step:         655  Bead:       0 kinetic_cv{atomic_unit}  cell{atomic_unit}
       H  5.34785e-04  5.19892e-04  5.27405e-04
1
# CELL(abcABC):  188.97261   188.97261   188.97261    90.00000    90.00000    90.00000  Step:         660  Bead:       0 kinetic_cv{atomic_unit}  cell{atomic_unit}
       H  5.41088e-04  7.56158e-04  5.10870e-04
1
# CELL(abcABC):  188.97261   188.97261   188.97261    90.00000    90.00000    90.00000  Step:         665  Bead:       0 kinetic_cv{atomic_unit}  cell{atomic_unit}
       H  5.40755e-04  5.32965e-04  4.95707e-04
1
# CELL(abcABC):  188.97261   188.97261   188.97261    90.00000    90.00000    90.00000  Step:         670  Bead:       0 kinetic_cv{atomic_unit}  cell{atomic_unit}
       H  4.98313e-04  5.55614e-04  5.13220e-04
1
# CELL(abcABC):  188.97261   188.97261   188.97261    90.00000    90.00000    90.00000  Step:         675  Bead:       0 kinetic_cv{atomic_unit}  cell{atomic_unit}
       H  5.05343e-04  6.30442e-04  4.82172e-04
1
# CELL(abcABC):  188.97261   188.97261   188.97261    90.00000    90.00000    90.00000  Step:         680  Bead:       0 kinetic_cv{atomic_unit}  cell{atomic_unit}
       H  5.76776e-04  8.14687e-04  4.83019e-04
1
# CELL(abcABC):  188.97261   188.97261   188.97261    90.00000    90.00000    90.00000  Step:         685  Bead:       0 kinetic_cv{atomic_unit}  cell{atomic_unit}
       H  5.78639e-04  7.43008e-04  4.84024e-04
1
# CELL(abcABC):  188.97261   188.97261   188.97261    90.00000    90.00000    90.00000  Step:         690  Bead:       0 kinetic_cv{atomic_unit}  cell{atomic_unit}
       H  4.98581e-04  5.47061e-04  4.98254e-04
1
# CELL(abcABC):  188.97261   188.97261   188.97261    90.00000    90.00000    90.00000  Step:         695  Bead:       0 kinetic_cv{atomic_unit}  cell{atomic_unit}
       H  7.57563e-04  5.30350e-04  4.84235e-04
1