1
# CELL(abcABC):  188.97261   188.97261   188.97261    90.00000    90.00000    90.00000  Step:           0  Bead:       0 kinetic_cv{atomic_unit}  cell{atomic_unit}
       H  4.75022e-04  4.75022e-04  4.75022e-04
1
# CELL(abcABC):  188.97261   188.97261   188.97261    90.00000    90.00000    90.00000  Step:           5  Bead:       0 kinetic_cv{atomic_unit}  cell{atomic_unit}
       H  4.83709e-04  4.84972e-04  4.78115e-04
1
# CELL(abcABC):  188.97261   188.97261   188.97261    90.00000    90.00000    90.00000  Step:          10  Bead:       0 kinetic_cv{atomic_unit}  cell{atomic_unit}
       H  4.87645e-04  4.79280e-04  4.77463e-04
1
# CELL(abcABC):  188.97261   188.97261   188.97261    90.00000    90.00000    90.00000  Step:          15  Bead:       0 kinetic_cv{atomic_unit}  cell{atomic_unit}
       H  4.97803e-04  4.81350e-04  4.83509e-04
1
# CELL(abcABC):  188.97261   188.97261   188.97261    90.00000    90.00000    90.00000  Step:          20  Bead:       0 kinetic_cv{atomic_unit}  cell{atomic_unit}
       H  4.90567e-04  4.87135e-04  4.78824e-04
1
# CELL(abcABC):  188.97261   188.97261   188.97261    90.00000    90.00000    90.00000  Step:          25  Bead:       0 kinetic_cv{atomic_unit}  cell{atomic_unit}
       H  4.94646e-04  4.88952e-04  4.76957e-04
1
# CELL(abcABC):  188.97261   188.97261   188.97261    90.00000    90.00000    90.00000  Step:          30  Bead:       0 kinetic_cv{atomic_unit}  cell{atomic_unit}
       H  4.83129e-04  5.03588e-04  4.84709e-04
1
# CELL(abcABC):  188.97261   188.97261   188.97261    90.00000    90.00000    90.00000  Step:          35  Bead:       0 kinetic_cv{atomic_unit}  cell{atomic_unit}
       H  4.84286e-04  5.22763e-04  4.96881e-04
1
# CELL(abcABC):  188.97261   188.97261   188.97261    90.00000    90.00000    90.00000  Step:          40  Bead:       0 kinetic_cv{atomic_unit}  cell{atomic_unit}
       H  4.84481e-04  4.90566e-04  4.86337e-04
1
# CELL(abcABC):  188.97261   188.97261   188.97261    90.00000    90.00000    90.00000  Step:          45  Bead:       0 kinetic_cv{atomic_unit}  cell{atomic_unit}
       H  4.84150e-04  4.86645e-04  4.83748e-04
1
# CELL(abcABC):  188.97261   188.97261   188.97261    90.00000    90.00000    90.00000  Step:          50  Bead:       0 kinetic_cv{atomic_unit}  cell{atomic_unit}
       H  4.86585e-04  4.92378e-04  4.85531e-04
1
# CELL(abcABC):  188.97261   188.97261   188.97261    90.00000    90.00000    90.00000  Step:          55  Bead:       0 kinetic_cv{atomic_unit}  cell{atomic_unit}
       H  4.99609e-04  4.87867e-04  4.86900e-04
1
# CELL(abcABC):  188.97261   188.97261   188.97261    90.00000    90.00000    90.00000  Step:          60  Bead:       0 kinetic_cv{atomic_unit}  cell{atomic_unit}
       H  5.02278e-04  4.92315e-04  4.80537e-04
1
# CELL(abcABC):  188.97261   188.97261   188.97261    90.00000    90.00000    90.00000  Step:          65  Bead:       0 kinetic_cv{atomic_unit}  cell{atomic_unit}
       H  5.40727e-04  5.01525e-04  4.77157e-04
1
# CELL(abcABC):  188.97261   188.97261   188.97261    90.00000    90.00000    90.00000  Step:          70  Bead:       0 kinetic_cv{atomic_unit}  cell{atomic_unit}
       H  4.92695e-04  4.94957e-04  4.79558e-04
1
# CELL(abcABC):  188.97261   188.97261   188.97261    90.00000    90.00000    90.00000  Step:          75  Bead:       0 kinetic_cv{atomic_unit}  cell{atomic_unit}
       H  4.86869e-04  4.84822e-04  4.79089e-04
1
# CELL(abcABC):  188.97261   188.97261   188.97261    90.00000    90.00000    90.00000  Step:          80  Bead:       0 kinetic_cv{atomic_unit}  cell{atomic_unit}
       H  4.91692e-04  4.93716e-04  4.79079e-04
1
# CELL(abcABC):  188.97261   188.97261   188.97261    90.00000    90.00000    90.00000  Step:          85  Bead:       0 kinetic_cv{atomic_unit}  cell{atomic_unit}
       H  4.82689e-04  4.86055e-04  4.78406e-04
1
# CELL(abcABC):  188.97261   188.97261   188.97261    90.00000    90.00000    90.00000  Step:          90  Bead:       0 kinetic_cv{atomic_unit}  cell{atomic_unit}
       H  5.05155e-04  5.12853e-04  4.75786e-04
1
# CELL(abcABC):  188.97261   188.97261   188.97261    90.00000    90.00000    90.00000  Step:          95  Bead:       0 kinetic_cv{atomic_unit}  cell{atomic_unit}
       H  5.01993e-04  4.98212e-04  4.82379e-04
1
# CELL(abcABC):  188.97261   188.97261   188.97261    90.00000    90.00000    90.00000  Step:         100  Bead:       0 kinetic_cv{atomic_unit}  cell{atomic_unit}
       H  4.81967e-04  4.93042e-04  4.78119e-04
1
# CELL(abcABC):  188.97261   188.97261   188.97261    90.00000    90.00000    90.00000  Step:         105  Bead:       0 kinetic_cv{atomic_unit}  cell{atomic_unit}
       H  4.96983e-04  4.87717e-04  4.78462e-04
1
# CELL(abcABC):  188.97261   188.97261   188.97261    90.00000    90.00000    90.00000  Step:         110  Bead:       0 kinetic_cv{atomic_unit}  cell{atomic_unit}
       H  4.85703e-04  4.85407e-04  4.82892e-04
1
# CELL(abcABC):  188.97261   188.97261   188.97261    90.00000    90.00000    90.00000  Step:         115  Bead:       0 kinetic_cv{atomic_unit}  cell{atomic_unit}
       H  5.14604e-04  5.13277e-04  4.83288e-04
1
# CELL(abcABC):  188.97261   188.97261   188.97261    90.00000    90.00000    90.00000  Step:         120  Bead:       0 kinetic_cv{atomic_unit}  cell{atomic_unit}
       H  4.85652e-04  4.92597e-04  4.81420e-04
1
# CELL(abcABC):  188.97261   188.97261   188.97261    90.00000    90.00000    90.00000  Step:         125  Bead:       0 kinetic_cv{atomic_unit}  cell{atomic_unit}
       H  4.81478e-04  4.99717e-04  4.78232e-04
1
# CELL(abcABC):  188.97261   188.97261   188.97261    90.00000    90.00000    90.00000  Step:         130  Bead:       0 kinetic_cv{atomic_unit}  cell{atomic_unit}
       H  4.85291e-04  4.91677e-04  4.92803e-04
1
# CELL(abcABC):  188.97261   188.97261   188.97261    90.00000    90.00000    90.00000  Step:         135  Bead:       0 kinetic_cv{atomic_unit}  cell{atomic_unit}
       H  5.23133e-04  4.94529e-04  4.79614e-04
1
# CELL(abcABC):  188.97261   188.97261   188.97261    90.00000    90.00000    90.00000  Step:         140  Bead:       0 kinetic_cv{atomic_unit}  cell{atomic_unit}
       H  4.94347e-04  4.79465e-04  4.82079e-04
1
# CELL(abcABC):  188.97261   188.97261   188.97261    90.00000    90.00000    90.00000  Step:         145  Bead:       0 kinetic_cv{atomic_unit}  cell{atomic_unit}
       H  5.00295e-04  4.95566e-04  4.91553e-04
1
# CELL(abcABC):  188.97261   188.97261   188.97261    90.00000    90.00000    90.00000  Step:         150  Bead:       0 kinetic_cv{atomic_unit}  cell{atomic_unit}
       H  4.95436e-04  4.96696e-04  4.79863e-04
1
# CELL(abcABC):  188.97261   188.97261   188.97261    90.00000    90.00000    90.00000  Step:         155  Bead:       0 kinetic_cv{atomic_unit}  cell{atomic_unit}
       H  4.92081e-04  4.90158e-04  4.78115e-04
1
# CELL(abcABC):  188.97261   188.97261   188.97261    90.00000    90.00000    90.00000  Step:         160  Bead:       0 kinetic_cv{atomic_unit}  cell{atomic_unit}
       H  4.84404e-04  4.85432e-04  4.83448e-04
1
# CELL(abcABC):  188.97261   188.97261   188.97261    90.00000    90.00000    90.00000  Step:         165  Bead:       0 kinetic_cv{atomic_unit}  cell{atomic_unit}
       H  4.96491e-04  4.93645e-04  4.79691e-04
1
# CELL(abcABC):  188.97261   188.97261   188.97261    90.00000    90.00000    90.00000  Step:         170  Bead:       0 kinetic_cv{atomic_unit}  cell{atomic_unit}
       H  5.22283e-04  4.89202e-04  4.77708e-04
1
# CELL(abcABC):  188.97261   188.97261   188.97261    90.00000    90.00000    90.00000  Step:         175  Bead:       0 kinetic_cv{atomic_unit}  cell{atomic_unit}
       H  4.88347e-04  4.78994e-04  4.77652e-04
1
# CELL(abcABC):  188.97261   188.97261   188.97261    90.00000    90.00000    90.00000  Step:         180  Bead:       0 kinetic_cv{atomic_unit}  cell{atomic_unit}
       H  4.96191e-04  5.48380e-04  4.78121e-04
1
# CELL(abcABC):  188.97261   188.97261   188.97261    90.00000    90.00000    90.00000  Step:         185  Bead:       0 kinetic_cv{atomic_unit}  cell{atomic_unit}
       H  5.18307e-04  4.78991e-04  4.80563e-04
1
# CELL(abcABC):  188.97261   188.97261   188.97261    90.00000    90.00000    90.00000  Step:         190  Bead:       0 kinetic_cv{atomic_unit}  cell{atomic_unit}
       H  5.07114e-04  4.89997e-04  4.76612e-04
1
# CELL(abcABC):  188.97261   188.97261   188.97261    90.00000    90.00000    90.00000  Step:         195  Bead:       0 kinetic_cv{atomic_unit}  cell{atomic_unit}
       H  5.10741e-04  4.82100e-04  4.77792e-04
1
# CELL(abcABC):  188.97261   188.97261   188.97261    90.00000    90.00000    90.00000  Step:         200  Bead:       0 kinetic_cv{atomic_unit}  cell{atomic_unit}
       H  5.07490e-04  4.96514e-04  4.77404e-04
1
# CELL(abcABC):  188.97261   188.97261   188.97261    90.00000    90.00000    90.00000  Step:         205  Bead:       0 kinetic_cv{atomic_unit}  cell{atomic_unit}
       H  4.89461e-04  4.83321e-04  4.80429e-04
1
# CELL(abcABC):  188.97261   188.97261   188.97261    90.00000    90.00000    90.00000  Step:         210  Bead:       0 kinetic_cv{atomic_unit}  cell{atomic_unit}
       H  4.92604e-04  4.93110e-04  4.77168e-04
1
# CELL(abcABC):  188.97261   188.97261   188.97261    90.00000    90.00000    90.00000  Step:         215  Bead:       0 kinetic_cv{atomic_unit}  cell{atomic_unit}
       H  4.95604e-04  4.90500e-04  4.77241e-04
1
# CELL(abcABC):  188.97261   188.97261   188.97261    90.00000    90.00000    90.00000  Step:         220  Bead:       0 kinetic_cv{atomic_unit}  cell{atomic_unit}
       H  4.95780e-04  4.95957e-04  4.82726e-04
1
# CELL(abcABC):  188.97261   188.97261   188.97261    90.00000    90.00000    90.00000  Step:         225  Bead:       0 kinetic_cv{atomic_unit}  cell{atomic_unit}
       H  4.88949e-04  4.86688e-04  4.86693e-04
1
# CELL(abcABC):  188.97261   188.97261   188.97261    90.00000    90.00000    90.00000  Step:         230  Bead:       0 kinetic_cv{atomic_unit}  cell{atomic_unit}
       H  5.01335e-04  4.84771e-04  4.78637e-04
1
# CELL(abcABC):  188.97261   188.97261   188.97261    90.00000    90.00000    90.00000  Step:         235  Bead:       0 kinetic_cv{atomic_unit}  cell{atomic_unit}
       H  5.11019e-04  5.00116e-04  4.84241e-04
1
# CELL(abcABC):  188.97261   188.97261   188.97261    90.00000    90.00000    90.00000  Step:         240  Bead:       0 kinetic_cv{atomic_unit}  cell{atomic_unit}
       H  4.96840e-04  4.84473e-04  4.82087e-04
1
# CELL(abcABC):  188.97261   188.97261   188.97261    90.00000    90.00000    90.00000  Step:         245  Bead:       0 kinetic_cv{atomic_unit}  cell{atomic_unit}
       H  5.31847e-04  4.83629e-04  4.85212e-04
1
# CELL(abcABC):  188.97261   188.97261   188.97261    90.00000    90.00000    90.00000  Step:         250  Bead:       0 kinetic_cv{atomic_unit}  cell{atomic_unit}
       H  5.47928e-04  5.34023e-04  4.79952e-04
1
# CELL(abcABC):  188.97261   188.97261   188.97261    90.00000    90.00000    90.00000  Step:         255  Bead:       0 kinetic_cv{atomic_unit}  cell{atomic_unit}
       H  4.89741e-04  5.07194e-04  4.79423e-04
1
# CELL(abcABC):  188.97261   188.97261   188.97261    90.00000    90.00000    90.00000  Step:         260  Bead:       0 kinetic_cv{atomic_unit}  cell{atomic_unit}
       H  4.95096e-04  4.83654e-04  4.77005e-04
1
# CELL(abcABC):  188.97261   188.97261   188.97261    90.00000    90.00000    90.00000  Step:         265  Bead:       0 kinetic_cv{atomic_unit}  cell{atomic_unit}
       H  4.96479e-04  4.87794e-04  4.76941e-04
1
# CELL(abcABC):  188.97261   188.97261   188.97261    90.00000    90.00000    90.00000  Step:         270  Bead:       0 kinetic_cv{atomic_unit}  cell{atomic_unit}
       H  5.06203e-04  4.83391e-04  4.77390e-04
1
# CELL(abcABC):  188.97261   188.97261   188.97261    90.00000    90.00000    90.00000  Step:         275  Bead:       0 kinetic_cv{atomic_unit}  cell{atomic_unit}
       H  5.08566e-04  5.22669e-04  4.75894e-04
1
# CELL(abcABC):  188.97261   188.97261   188.97261    90.00000    90.00000    90.00000  Step:         280  Bead:       0 kinetic_cv{atomic_unit}  cell{atomic_unit}
       H  4.81289e-04  4.87366e-04  4.75811e-04
1
# CELL(abcABC):  188.97261   188.97261   188.97261    90.00000    90.00000    90.00000  Step:         285  Bead:       0 kinetic_cv{atomic_unit}  cell{atomic_unit}
       H  4.83766e-04  4.94842e-04  4.75411e-04
1
# CELL(abcABC):  188.97261   188.97261   188.97261    90.00000    90.00000    90.00000  Step:         290  Bead:       0 kinetic_cv{atomic_unit}  cell{atomic_unit}
       H  5.30470e-04  5.08384e-04  4.76730e-04
1
# CELL(abcABC):  188.97261   188.97261   188.97261    90.00000    90.00000    90.00000  Step:         295  Bead:       0 kinetic_cv{atomic_unit}  cell{atomic_unit}
       H  5.11161e-04  4.93747e-04  4.77059e-04
1
# CELL(abcABC):  188.97261   188.97261   188.97261    90.00000    90.00000    90.00000  Step:         300  Bead:       0 kinetic_cv{atomic_unit}  cell{atomic_unit}
       H  4.89309e-04  4.84652e-04  4.76575e-04
1
# CELL(abcABC):  188.97261   188.97261   188.97261    90.00000    90.00000    90.00000  Step:         305  Bead:       0 kinetic_cv{atomic_unit}  cell{atomic_unit}
       H  5.04288e-04  4.90839e-04  4.78276e-04
1
# CELL(abcABC):  188.97261   188.97261   188.97261    90.00000    90.00000    90.00000  Step:         310  Bead:       0 kinetic_cv{atomic_unit}  cell{atomic_unit}
       H  5.46927e-04  4.85418e-04  4.78257e-04
1
# CELL(abcABC):  188.97261   188.97261   188.97261    90.00000    90.00000    90.00000  Step:         315  Bead:       0 kinetic_cv{atomic_unit}  cell{atomic_unit}
       H  4.93302e-04  4.82439e-04  4.78925e-04
1
# CELL(abcABC):  188.97261   188.97261   188.97261    90.00000    90.00000    90.00000  Step:         320  Bead:       0 kinetic_cv{atomic_unit}  cell{atomic_unit}
       H  4.81177e-04  4.85574e-04  4.77861e-04
1
# CELL(abcABC):  188.97261   188.97261   188.97261    90.00000    90.00000    90.00000  Step:         325  Bead:       0 kinetic_cv{atomic_unit}  cell{atomic_unit}
       H  5.23405e-04  4.89087e-04  4.81339e-04
1
# CELL(abcABC):  188.97261   188.97261   188.97261    90.00000    90.00000    90.00000  Step:         330  Bead:       0 kinetic_cv{atomic_unit}  cell{atomic_unit}
       H  4.78725e-04  5.26730e-04  4.83214e-04
1
# CELL(abcABC):  188.97261   188.97261   188.97261    90.00000    90.00000    90.00000  Step:         335  Bead:       0 kinetic_cv{atomic_unit}  cell{atomic_unit}
       H  5.02203e-04  4.83214e-04  4.80981e-04
1
# CELL(abcABC):  188.97261   188.97261   188.97261    90.00000    90.00000    90.00000  Step:         340  Bead:       0 kinetic_cv{atomic_unit}  cell{atomic_unit}
       H  4.82667e-04  5.89930e-04  4.79819e-04
1
# CELL(abcABC):  188.97261   188.97261   188.97261    90.00000    90.00000    90.00000  Step:         345  Bead:       0 kinetic_cv{atomic_unit}  cell{atomic_unit}
       H  4.84754e-04  4.82157e-04  4.78939e-04
1
# CELL(abcABC):  188.97261   188.97261   188.97261    90.00000    90.00000    90.00000  Step:         350  Bead:       0 kinetic_cv{atomic_unit}  cell{atomic_unit}
       H  5.37991e-04  4.92631e-04  4.78244e-04
1
# CELL(abcABC):  188.97261   188.97261   188.97261    90.00000    90.00000    90.00000  Step:         355  Bead:       0 kinetic_cv{atomic_unit}  cell{atomic_unit}
       H  5.04500e-04  4.96457e-04  4.76316e-04
1
# CELL(abcABC):  188.97261   188.97261   188.97261    90.00000    90.00000    90.00000  Step:         360  Bead:       0 kinetic_cv{atomic_unit}  cell{atomic_unit}
       H  5.24891e-04  4.92127e-04  4.79035e-04
1
# CELL(abcABC):  188.97261   188.97261   188.97261    90.00000    90.00000    90.00000  Step:         365  Bead:       0 kinetic_cv{atomic_unit}  cell{atomic_unit}
       H  4.80732e-04  4.89360e-04  4.83688e-04
1
# CELL(abcABC):  188.97261   188.97261   188.97261    90.00000    90.00000    90.00000  Step:         370  Bead:       0 kinetic_cv{atomic_unit}  cell{atomic_unit}
       H  4.93053e-04  5.08393e-04  4.77342e-04
1
# CELL(abcABC):  188.97261   188.97261   188.97261    90.00000    90.00000    90.00000  Step:         375  Bead:       0 kinetic_cv{atomic_unit}  cell{atomic_unit}
       H  5.06302e-04  4.89461e-04  4.82629e-04
1
# CELL(abcABC):  188.97261   188.97261   188.97261    90.00000    90.00000    90.00000  Step:         380  Bead:       0 kinetic_cv{atomic_unit}  cell{atomic_unit}
       H  4.89784e-04  4.85872e-04  4.76267e-04
1
# CELL(abcABC):  188.97261   188.97261   188.97261    90.00000    90.00000    90.00000  Step:         385  Bead:       0 kinetic_cv{atomic_unit}  cell{atomic_unit}
       H  4.96514e-04  4.94206e-04  4.75815e-04
1
# CELL(abcABC):  188.97261   188.97261   188.97261    90.00000    90.00000    90.00000  Step:         390  Bead:       0 kinetic_cv{atomic_unit}  cell{atomic_unit}
       H  5.22738e-04  4.90213e-04  4.78470e-04
1
# CELL(abcABC):  188.97261   188.97261   188.97261    90.00000    90.00000    90.00000  Step:         395  Bead:       0 kinetic_cv{atomic_unit}  cell{atomic_unit}
       H  4.82873e-04  4.89968e-04  4.78286e-04
1
# CELL(abcABC):  188.97261   188.97261   188.97261    90.00000    90.00000    90.00000  Step:         400  Bead:       0 kinetic_cv{atomic_unit}  cell{atomic_unit}
       H  4.94704e-04  4.89397e-04  4.76609e-04
1
# CELL(abcABC):  188.97261   188.97261   188.97261    90.00000    90.00000    90.00000  Step:         405  Bead:       0 kinetic_cv{atomic_unit}  cell{atomic_unit}
       H  4.93553e-04  4.82575e-04  4.76734e-04
1
# CELL(abcABC):  188.97261   188.97261   188.97261    90.00000    90.00000    90.00000  Step:         410  Bead:       0 kinetic_cv{atomic_unit}  cell{atomic_unit}
       H  4.80698e-04  4.79651e-04  4.77146e-04
1
# CELL(abcABC):  188.97261   188.97261   188.97261    90.00000    90.00000    90.00000  Step:         415  Bead:       0 kinetic_cv{atomic_unit}  cell{atomic_unit}
       H  4.91702e-04  5.06638e-04  4.80525e-04
1
# CELL(abcABC):  188.97261   188.97261   188.97261    90.00000    90.00000    90.00000  Step:         420  Bead:       0 kinetic_cv{atomic_unit}  cell{atomic_unit}
       H  4.96962e-04  4.95050e-04  4.94301e-04
1
# CELL(abcABC):  188.97261   188.97261   188.97261    90.00000    90.00000    90.00000  Step:         425  Bead:       0 kinetic_cv{atomic_unit}  cell{atomic_unit}
       H  4.88330e-04  4.95939e-04  4.88436e-04
1
# CELL(abcABC):  188.97261   188.97261   188.97261    90.00000    90.00000    90.00000  Step:         430  Bead:       0 kinetic_cv{atomic_unit}  cell{atomic_unit}
       H  4.94771e-04  4.89893e-04  4.94147e-04
1
# CELL(abcABC):  188.97261   188.97261   188.97261    90.00000    90.00000    90.00000  Step:         435  Bead:       0 kinetic_cv{atomic_unit}  cell{atomic_unit}
       H  4.95942e-04  4.98874e-04  4.90670e-04
1
# CELL(abcABC):  188.97261   188.97261   188.97261    90.00000    90.00000    90.00000  Step:         440  Bead:       0 kinetic_cv{atomic_unit}  cell{atomic_unit}
       H  4.91857e-04  4.86895e-04  4.80385e-04
1
# CELL(abcABC):  188.97261   188.97261   188.97261    90.00000    90.00000    90.00000  Step:         445  Bead:       0 kinetic_cv{atomic_unit}  cell{atomic_unit}
       H  4.85389e-04  4.86797e-04  4.77988e-04
1
# CELL(abcABC):  188.97261   188.97261   188.97261    90.00000    90.00000    90.00000  Step:         450  Bead:       0 kinetic_cv{atomic_unit}  cell{atomic_unit}
       H  5.45629e-04  4.86264e-04  4.85008e-04
1
# CELL(abcABC):  188.97261   188.97261   188.97261    90.00000    90.00000    90.00000  Step:         455  Bead:       0 kinetic_cv{atomic_unit}  cell{atomic_unit}
       H  4.88667e-04  5.08116e-04  4.76069e-04
1
# CELL(abcABC):  188.97261   188.97261   188.97261    90.00000    90.00000    90.00000  Step:         460  Bead:       0 kinetic_cv{atomic_unit}  cell{atomic_unit}
       H  4.94247e-04  4.85530e-04  4.84756e-04
1
# CELL(abcABC):  188.97261   188.97261   188.97261    90.00000    90.00000    90.00000  Step:         465  Bead:       0 kinetic_cv{atomic_unit}  cell{atomic_unit}
       H  4.96098e-04  4.94096e-04  4.80211e-04
1
# CELL(abcABC):  188.97261   188.97261   188.97261    90.00000    90.00000    90.00000  Step:         470  Bead:       0 kinetic_cv{atomic_unit}  cell{atomic_unit}
       H  5.04410e-04  4.91944e-04  4.90303e-04
1
# CELL(abcABC):  188.97261   188.97261   188.97261    90.00000    90.00000    90.00000  Step:         475  Bead:       0 kinetic_cv{atomic_unit}  cell{atomic_unit}
       H  4.89260e-04  4.86052e-04  4.82549e-04
1
# CELL(abcABC):  188.97261   188.97261   188.97261    90.00000    90.00000    90.00000  Step:         480  Bead:       0 kinetic_cv{atomic_unit}  cell{atomic_unit}
       H  5.05515e-04  4.88715e-04  4.88544e-04
1
# CELL(abcABC):  188.97261   188.97261   188.97261    90.00000    90.00000    90.00000  Step:         485  Bead:       0 kinetic_cv{atomic_unit}  cell{atomic_unit}
       H  5.16806e-04  4.89947e-04  4.78706e-04
1
# CELL(abcABC):  188.97261   188.97261   188.97261    90.00000    90.00000    90.00000  Step:         490  Bead:       0 kinetic_cv{atomic_unit}  cell{atomic_unit}
       H  4.88172e-04  4.80787e-04  4.78035e-04
1
# CELL(abcABC):  188.97261   188.97261   188.97261    90.00000    90.00000    90.00000  Step:         495  Bead:       0 kinetic_cv{atomic_unit}  cell{atomic_unit}
       H  4.91409e-04  5.19588e-04  4.80069e-04
1
# CELL(abcABC):  188.97261   188.97261   188.97261    90.00000    90.00000    90.00000  Step:         500  Bead:       0 kinetic_cv{atomic_unit}  cell{atomic_unit}
       H  4.95647e-04  4.84492e-04  4.75690e-04
1
# CELL(abcABC):  188.97261   188.97261   188.97261    90.00000    90.00000    90.00000  Step:         505  Bead:       0 kinetic_cv{atomic_unit}  cell{atomic_unit}
       H  4.94111e-04  5.12507e-04  4.78041e-04
1
# CELL(abcABC):  188.97261   188.97261   188.97261    90.00000    90.00000    90.00000  Step:         510  Bead:       0 kinetic_cv{atomic_unit}  cell{atomic_unit}
       H  6.02012e-04  4.97955e-04  4.76527e-04
1
# CELL(abcABC):  188.97261   188.97261   188.97261    90.00000    90.00000    90.00000  Step:         515  Bead:       0 kinetic_cv{atomic_unit}  cell{atomic_unit}
       H  5.24069e-04  4.93214e-04  4.85122e-04
1
# CELL(abcABC):  188.97261   188.97261   188.97261    90.00000    90.00000    90.00000  Step:         520  Bead:       0 kinetic_cv{atomic_unit}  cell{atomic_unit}
       H  4.89899e-04  5.09079e-04  4.78515e-04
1
# CELL(abcABC):  188.97261   188.97261   188.97261    90.00000    90.00000    90.00000  Step:         525  Bead:       0 kinetic_cv{atomic_unit}  cell{atomic_unit}
       H  4.84228e-04  4.85987e-04  4.76741e-04
1
# CELL(abcABC):  188.97261   188.97261   188.97261    90.00000    90.00000    90.00000  Step:         530  Bead:       0 kinetic_cv{atomic_unit}  cell{atomic_unit}
       H  4.96009e-04  4.95481e-04  5.02734e-04
1
# CELL(abcABC):  188.97261   188.97261   188.97261    90.00000    90.00000    90.00000  Step:         535  Bead:       0 kinetic_cv{atomic_unit}  cell{atomic_unit}
       H  4.92453e-04  5.58808e-04  4.81248e-04
1
# CELL(abcABC):  188.97261   188.97261   188.97261    90.00000    90.00000    90.00000  Step:         540  Bead:       0 kinetic_cv{atomic_unit}  cell{atomic_unit}
       H  4.80866e-04  5.41435e-04  4.77705e-04
1
# CELL(abcABC):  188.97261   188.97261   188.97261    90.00000    90.00000    90.00000  Step:         545  Bead:       0 kinetic_cv{atomic_unit}  cell{atomic_unit}
       H  5.14469e-04  4.80747e-04  4.85205e-04
1
# CELL(abcABC):  188.97261   188.97261   188.97261    90.00000    90.00000    90.00000  Step:         550  Bead:       0 kinetic_cv{atomic_unit}  cell{atomic_unit}
       H  4.93797e-04  4.87992e-04  4.84998e-04
1
# CELL(abcABC):  188.97261   188.97261   188.97261    90.00000    90.00000    90.00000  Step:         555  Bead:       0 kinetic_cv{atomic_unit}  cell{atomic_unit}
       H  5.05248e-04  5.03362e-04  4.75995e-04
1
# CELL(abcABC):  188.97261   188.97261   188.97261    90.00000    90.00000    90.00000  Step:         560  Bead:       0 kinetic_cv{atomic_unit}  cell{atomic_unit}
       H  4.87108e-04  4.80217e-04  4.80309e-04
1
# CELL(abcABC):  188.97261   188.97261   188.97261    90.00000    90.00000    90.00000  Step:         565  Bead:       0 kinetic_cv{atomic_unit}  cell{atomic_unit}
       H  4.96667e-04  4.94488e-04  4.80421e-04
1
# CELL(abcABC):  188.97261   188.97261   188.97261    90.00000    90.00000    90.00000  Step:         570  Bead:       0 kinetic_cv{atomic_unit}  cell{atomic_unit}
       H  4.99171e-04  4.98410e-04  4.78945e-04
1
# CELL(abcABC):  188.97261   188.97261   188.97261    90.00000    90.00000    90.00000  Step:         575  Bead:       0 kinetic_cv{atomic_unit}  cell{atomic_unit}
       H  4.92345e-04  4.96444e-04  4.78671e-04
1
# CELL(abcABC):  188.97261   188.97261   188.97261    90.00000    90.00000    90.00000  Step:         580  Bead:       0 kinetic_cv{atomic_unit}  cell{atomic_unit}
       H  4.92975e-04  4.91470e-04  4.76219e-04
1
# CELL(abcABC):  188.97261   188.97261   188.97261    90.00000    90.00000    90.00000  Step:         585  Bead:       0 kinetic_cv{atomic_unit}  cell{atomic_unit}
       H  4.97822e-04  4.90146e-04  4.78045e-04
1
# CELL(abcABC):  188.97261   188.97261   188.97261    90.00000    90.00000    90.00000  Step:         590  Bead:       0 kinetic_cv{atomic_unit}  cell{atomic_unit}
       H  4.89464e-04  5.30072e-04  4.77437e-04
1
# CELL(abcABC):  188.97261   188.97261   188.97261    90.00000    90.00000    90.00000  Step:         595  Bead:       0 kinetic_cv{atomic_unit}  cell{atomic_unit}
       H  5.08135e-04  4.81927e-04  4.80008e-04
1
# CELL(abcABC):  188.97261   188.97261   188.97261    90.00000    90.00000    90.00000  Step:         600  Bead:       0 kinetic_cv{atomic_unit}  cell{atomic_unit}
       H  5.20171e-04  4.99703e-04  4.76719e-04
1
# CELL(abcABC):  188.97261   188.97261   188.97261    90.00000    90.00000    90.00000  Step:         605  Bead:       0 kinetic_cv{atomic_unit}  cell{atomic_unit}
       H  4.83258e-04  4.94136e-04  4.76107e-04
1
# CELL(abcABC):  188.97261   188.97261   188.97261    90.00000    90.00000    90.00000  Step:         610  Bead:       0 kinetic_cv{atomic_unit}  cell{atomic_unit}
       H  4.83375e-04  5.11269e-04  4.75969e-04
1
# CELL(abcABC):  188.97261   188.97261   188.97261    90.00000    90.00000    90.00000  Step:         615  Bead:       0 kinetic_cv{atomic_unit}  cell{atomic_unit}
       H  5.23039e-04  5.09592e-04  4.76729e-04
1
# CELL(abcABC):  188.97261   188.97261   188.97261    90.00000    90.00000    90.00000  Step:         620  Bead:       0 kinetic_cv{atomic_unit}  cell{atomic_unit}
       H  4.95754e-04  4.91082e-04  4.79789e-04
1
# CELL(abcABC):  188.97261   188.97261   188.97261    90.00000    90.00000    90.00000  Step:         625  Bead:       0 kinetic_cv{atomic_unit}  cell{atomic_unit}
       H  4.94018e-04  4.83897e-04  4.77309e-04
1
# CELL(abcABC):  188.97261   188.97261   188.97261    90.00000    90.00000    90.00000  Step:         630  Bead:       0 kinetic_cv{atomic_unit}  cell{atomic_unit}
       H  4.83906e-04  4.91839e-04  4.75476e-04
1
# CELL(abcABC):  188.97261   188.97261   188.97261    90.00000    90.00000    90.00000  Step:         635  Bead:       0 kinetic_cv{atomic_unit}  cell{atomic_unit}
       H  4.86262e-04  4.78317e-04  4.76507e-04
1
# CELL(abcABC):  188.97261   188.97261   188.97261    90.00000    90.00000    90.00000  Step:         640  Bead:       0 kinetic_cv{atomic_unit}  cell{atomic_unit}
       H  4.81005e-04  4.83044e-04  4.75801e-04
1
# CELL(abcABC):  188.97261   188.97261   188.97261    90.00000    90.00000    90.00000  Step:         645  Bead:       0 kinetic_cv{atomic_unit}  cell{atomic_unit}
       H  5.25442e-04  4.92588e-04  4.79257e-04
1
# CELL(abcABC):  188.97261   188.97261   188.97261    90.00000    90.00000    90.00000  Step:         650  Bead:       0 kinetic_cv{atomic_unit}  cell{atomic_unit}
       H  4.99376e-04  5.29083e-04  4.80538e-04
1
# CELL(abcABC):  188.97261   188.97261   188.97261    90.00000    90.00000    90.00000  Step:         655  Bead:       0 kinetic_cv{atomic_unit}  cell{atomic_unit}
       H  5.01825e-04  4.94089e-04  4.79093e-04
1
# CELL(abcABC):  188.97261   188.97261   188.97261    90.00000    90.00000    90.00000  Step:         660  Bead:       0 kinetic_cv{atomic_unit}  cell{atomic_unit}
       H  4.84440e-04  4.93093e-04  4.76735e-04
1
# CELL(abcABC):  188.97261   188.97261   188.97261    90.00000    90.00000    90.00000  Step:         665  Bead:       0 kinetic_cv{atomic_unit}  cell{atomic_unit}
       H  4.77994e-04  4.94997e-04  4.76428e-04
1
# CELL(abcABC):  188.97261   188.97261   188.97261    90.00000    90.00000    90.00000  Step:         670  Bead:       0 kinetic_cv{atomic_unit}  cell{atomic_unit}
       H  5.05854e-04  4.84318e-04  4.79039e-04
1
# CELL(abcABC):  188.97261   188.97261   188.97261    90.00000    90.00000    90.00000  Step:         675  Bead:       0 kinetic_cv{atomic_unit}  cell{atomic_unit}
       H  5.23419e-04  4.98935e-04  4.86747e-04
1
# CELL(abcABC):  188.97261   188.97261   188.97261    90.00000    90.00000    90.00000  Step:         680  Bead:       0 kinetic_cv{atomic_unit}  cell{atomic_unit}
       H  4.79450e-04  5.03526e-04  4.78659e-04
1
# CELL(abcABC):  188.97261   188.97261   188.97261    90.00000    90.00000    90.00000  Step:         685  Bead:       0 kinetic_cv{atomic_unit}  cell{atomic_unit}
       H  4.87301e-04  4.77452e-04  4.79583e-04
1
# CELL(abcABC):  188.97261   188.97261   188.97261    90.00000    90.00000    90.00000  Step:         690  Bead:       0 kinetic_cv{atomic_unit}  cell{atomic_unit}
       H  4.95478e-04  4.82312e-04  4.77156e-04
1
# CELL(abcABC):  188.97261   188.97261   188.97261    90.00000    90.00000    90.00000  Step:         695  Bead:       0 kinetic_cv{atomic_unit}  cell{atomic_unit}
       H  4.98741e-04  4.87563e-04  4.77588e-04
1