1
# CELL(abcABC):  188.97261   188.97261   188.97261    90.00000    90.00000    90.00000  Step:           0  Bead:       0 kinetic_cv{atomic_unit}  cell{atomic_unit}
       H  4.75022e-04  4.75022e-04  4.75022e-04
1
# CELL(abcABC):  188.97261   188.97261   188.97261    90.00000    90.00000    90.00000  Step:           5  Bead:       0 kinetic_cv{atomic_unit}  cell{atomic_unit}
       H  7.06993e-04  6.36066e-04  5.33852e-04
1
# CELL(abcABC):  188.97261   188.97261   188.97261    90.00000    90.00000    90.00000  Step:          10  Bead:       0 kinetic_cv{atomic_unit}  cell{atomic_unit}
       H  6.13634e-04  5.99532e-04  5.88257e-04
1
# CELL(abcABC):  188.97261   188.97261   188.97261    90.00000    90.00000    90.00000  Step:          15  Bead:       0 kinetic_cv{atomic_unit}  cell{atomic_unit}
       H  6.46867e-04  7.15998e-04  4.92183e-04
1
# CELL(abcABC):  188.97261   188.97261   188.97261    90.00000    90.00000    90.00000  Step:          20  Bead:       0 kinetic_cv{atomic_unit}  cell{atomic_unit}
       H  6.50785e-04  5.79345e-04  5.42957e-04
1
# CELL(abcABC):  188.97261   188.97261   188.97261    90.00000    90.00000    90.00000  Step:          25  Bead:       0 kinetic_cv{atomic_unit}  cell{atomic_unit}
       H  5.55831e-04  6.40635e-04  4.96285e-04
1
# CELL(abcABC):  188.97261   188.97261   188.97261    90.00000    90.00000    90.00000  Step:          30  Bead:       0 kinetic_cv{atomic_unit}  cell{atomic_unit}
       H  5.62673e-04  5.63337e-04  5.08433e-04
1
# CELL(abcABC):  188.97261   188.97261   188.97261    90.00000    90.00000    90.00000  Step:          35  Bead:       0 kinetic_cv{atomic_unit}  cell{atomic_unit}
       H  6.22526e-04  5.38593e-04  5.34353e-04
1
# CELL(abcABC):  188.97261   188.97261   188.97261    90.00000    90.00000    90.00000  Step:          40  Bead:       0 kinetic_cv{atomic_unit}  cell{atomic_unit}
       H  6.74728e-04  6.58930e-04  4.93819e-04
1
# CELL(abcABC):  188.97261   188.97261   188.97261    90.00000    90.00000    90.00000  Step:          45  Bead:       0 kinetic_cv{atomic_unit}  cell{atomic_unit}
       H  6.08531e-04  5.62039e-04  4.86819e-04
1
# CELL(abcABC):  188.97261   188.97261   188.97261    90.00000    90.00000    90.00000  Step:          50  Bead:       0 kinetic_cv{atomic_unit}  cell{atomic_unit}
       H  6.18719e-04  5.12344e-04  4.83230e-04
1
# CELL(abcABC):  188.97261   188.97261   188.97261    90.00000    90.00000    90.00000  Step:          55  Bead:       0 kinetic_cv{atomic_unit}  cell{atomic_unit}
       H  7.12644e-04  5.49896e-04  4.92319e-04
1
# CELL(abcABC):  188.97261   188.97261   188.97261    90.00000    90.00000    90.00000  Step:          60  Bead:       0 kinetic_cv{atomic_unit}  cell{atomic_unit}
       H  6.58966e-04  6.60087e-04  5.09187e-04
1
# CELL(abcABC):  188.97261   188.97261   188.97261    90.00000    90.00000    90.00000  Step:          65  Bead:       0 kinetic_cv{atomic_unit}  cell{atomic_unit}
       H  5.34476e-04  5.44839e-04  5.11503e-04
1
# CELL(abcABC):  188.97261   188.97261   188.97261    90.00000    90.00000    90.00000  Step:          70  Bead:       0 kinetic_cv{atomic_unit}  cell{atomic_unit}
       H  5.72279e-04  6.39488e-04  4.91537e-04
1
# CELL(abcABC):  188.97261   188.97261   188.97261    90.00000    90.00000    90.00000  Step:          75  Bead:       0 kinetic_cv{atomic_unit}  cell{atomic_unit}
       H  6.54319e-04  8.32054e-04  4.90098e-04
1
# CELL(abcABC):  188.97261   188.97261   188.97261    90.00000    90.00000    90.00000  Step:          80  Bead:       0 kinetic_cv{atomic_unit}  cell{atomic_unit}
       H  6.82187e-04  7.51321e-04  4.80555e-04
1
# CELL(abcABC):  188.97261   188.97261   188.97261    90.00000    90.00000    90.00000  Step:          85  Bead:       0 kinetic_cv{atomic_unit}  cell{atomic_unit}
       H  7.88429e-04  8.09063e-04  4.90083e-04
1
# CELL(abcABC):  188.97261   188.97261   188.97261    90.00000    90.00000    90.00000  Step:          90  Bead:       0 kinetic_cv{atomic_unit}  cell{atomic_unit}
       H  6.62786e-04  6.74389e-04  4.90095e-04
1
# CELL(abcABC):  188.97261   188.97261   188.97261    90.00000    90.00000    90.00000  Step:          95  Bead:       0 kinetic_cv{atomic_unit}  cell{atomic_unit}
       H  5.39612e-04  6.94885e-04  5.25134e-04
1
# CELL(abcABC):  188.97261   188.97261   188.97261    90.00000    90.00000    90.00000  Step:         100  Bead:       0 kinetic_cv{atomic_unit}  cell{atomic_unit}
       H  6.51499e-04  6.85954e-04  5.73282e-04
1
# CELL(abcABC):  188.97261   188.97261   188.97261    90.00000    90.00000    90.00000  Step:         105  Bead:       0 kinetic_cv{atomic_unit}  cell{atomic_unit}
       H  7.25276e-04  8.23628e-04  5.66840e-04
1
# CELL(abcABC):  188.97261   188.97261   188.97261    90.00000    90.00000    90.00000  Step:         110  Bead:       0 kinetic_cv{atomic_unit}  cell{atomic_unit}
       H  6.37540e-04  8.07045e-04  5.51258e-04
1
# CELL(abcABC):  188.97261   188.97261   188.97261    90.00000    90.00000    90.00000  Step:         115  Bead:       0 kinetic_cv{atomic_unit}  cell{atomic_unit}
       H  7.48015e-04  6.73329e-04  4.96234e-04
1
# CELL(abcABC):  188.97261   188.97261   188.97261    90.00000    90.00000    90.00000  Step:         120  Bead:       0 kinetic_cv{atomic_unit}  cell{atomic_unit}
       H  7.94344e-04  5.47920e-04  5.37954e-04
1
# CELL(abcABC):  188.97261   188.97261   188.97261    90.00000    90.00000    90.00000  Step:         125  Bead:       0 kinetic_cv{atomic_unit}  cell{atomic_unit}
       H  7.72250e-04  5.79597e-04  5.09544e-04
1
# CELL(abcABC):  188.97261   188.97261   188.97261    90.00000    90.00000    90.00000  Step:         130  Bead:       0 kinetic_cv{atomic_unit}  cell{atomic_unit}
       H  6.20070e-04  6.64892e-04  5.33978e-04
1
# CELL(abcABC):  188.97261   188.97261   188.97261    90.00000    90.00000    90.00000  Step:         135  Bead:       0 kinetic_cv{atomic_unit}  cell{atomic_unit}
       H  6.07772e-04  5.76085e-04  5.07614e-04
1
# CELL(abcABC):  188.97261   188.97261   188.97261    90.00000    90.00000    90.00000  Step:         140  Bead:       0 kinetic_cv{atomic_unit}  cell{atomic_unit}
       H  6.54637e-04  6.85610e-04  4.90847e-04
1
# CELL(abcABC):  188.97261   188.97261   188.97261    90.00000    90.00000    90.00000  Step:         145  Bead:       0 kinetic_cv{atomic_unit}  cell{atomic_unit}
       H  6.16367e-04  5.47646e-04  4.97314e-04
1
# CELL(abcABC):  188.97261   188.97261   188.97261    90.00000    90.00000    90.00000  Step:         150  Bead:       0 kinetic_cv{atomic_unit}  cell{atomic_unit}
       H  6.35175e-04  6.33008e-04  4.91425e-04
1
# CELL(abcABC):  188.97261   188.97261   188.97261    90.00000    90.00000    90.00000  Step:         155  Bead:       0 kinetic_cv{atomic_unit}  cell{atomic_unit}
       H  6.00337e-04  6.40239e-04  4.96091e-04
1
# CELL(abcABC):  188.97261   188.97261   188.97261    90.00000    90.00000    90.00000  Step:         160  Bead:       0 kinetic_cv{atomic_unit}  cell{atomic_unit}
       H  6.29241e-04  5.93696e-04  4.94361e-04
1
# CELL(abcABC):  188.97261   188.97261   188.97261    90.00000    90.00000    90.00000  Step:         165  Bead:       0 kinetic_cv{atomic_unit}  cell{atomic_unit}
       H  8.42883e-04  5.64227e-04  4.98817e-04
1
# CELL(abcABC):  188.97261   188.97261   188.97261    90.00000    90.00000    90.00000  Step:         170  Bead:       0 kinetic_cv{atomic_unit}  cell{atomic_unit}
       H  6.03687e-04  5.63498e-04  5.11737e-04
1
# CELL(abcABC):  188.97261   188.97261   188.97261    90.00000    90.00000    90.00000  Step:         175  Bead:       0 kinetic_cv{atomic_unit}  cell{atomic_unit}
       H  7.17807e-04  6.19293e-04  5.01743e-04
1
# CELL(abcABC):  188.97261   188.97261   188.97261    90.00000    90.00000    90.00000  Step:         180  Bead:       0 kinetic_cv{atomic_unit}  cell{atomic_unit}
       H  6.44044e-04  6.28920e-04  5.16974e-04
1
# CELL(abcABC):  188.97261   188.97261   188.97261    90.00000    90.00000    90.00000  Step:         185  Bead:       0 kinetic_cv{atomic_unit}  cell{atomic_unit}
       H  7.39337e-04  5.80369e-04  4.93995e-04
1
# CELL(abcABC):  188.97261   188.97261   188.97261    90.00000    90.00000    90.00000  Step:         190  Bead:       0 kinetic_cv{atomic_unit}  cell{atomic_unit}
       H  7.68394e-04  6.48281e-04  4.92956e-04
1
# CELL(abcABC):  188.97261   188.97261   188.97261    90.00000    90.00000    90.00000  Step:         195  Bead:       0 kinetic_cv{atomic_unit}  cell{atomic_unit}
       H  7.93036e-04  5.78837e-04  5.25684e-04
1
# CELL(abcABC):  188.97261   188.97261   188.97261    90.00000    90.00000    90.00000  Step:         200  Bead:       0 kinetic_cv{atomic_unit}  cell{atomic_unit}
       H  5.88325e-04  6.89833e-04  5.29949e-04
1
# CELL(abcABC):  188.97261   188.97261   188.97261    90.00000    90.00000    90.00000  Step:         205  Bead:       0 kinetic_cv{atomic_unit}  cell{atomic_unit}
       H  6.61808e-04  5.52140e-04  5.00226e-04
1
# CELL(abcABC):  188.97261   188.97261   188.97261    90.00000    90.00000    90.00000  Step:         210  Bead:       0 kinetic_cv{atomic_unit}  cell{atomic_unit}
       H  6.77773e-04  5.46992e-04  5.14092e-04
1
# CELL(abcABC):  188.97261   188.97261   188.97261    90.00000    90.00000    90.00000  Step:         215  Bead:       0 kinetic_cv{atomic_unit}  cell{atomic_unit}
       H  6.65435e-04  6.69703e-04  5.01744e-04
1
# CELL(abcABC):  188.97261   188.97261   188.97261    90.00000    90.00000    90.00000  Step:         220  Bead:       0 kinetic_cv{atomic_unit}  cell{atomic_unit}
       H  5.38453e-04  5.70979e-04  4.90557e-04
1
# CELL(abcABC):  188.97261   188.97261   188.97261    90.00000    90.00000    90.00000  Step:         225  Bead:       0 kinetic_cv{atomic_unit}  cell{atomic_unit}
       H  5.86101e-04  8.44802e-04  5.07899e-04
1
# CELL(abcABC):  188.97261   188.97261   188.97261    90.00000    90.00000    90.00000  Step:         230  Bead:       0 kinetic_cv{atomic_unit}  cell{atomic_unit}
       H  5.92069e-04  6.59842e-04  4.95453e-04
1
# CELL(abcABC):  188.97261   188.97261   188.97261    90.00000    90.00000    90.00000  Step:         235  Bead:       0 kinetic_cv{atomic_unit}  cell{atomic_unit}
       H  5.23347e-04  6.41308e-04  4.97289e-04
1
# CELL(abcABC):  188.97261   188.97261   188.97261    90.00000    90.00000    90.00000  Step:         240  Bead:       0 kinetic_cv{atomic_unit}  cell{atomic_unit}
       H  5.65836e-04  6.66464e-04  4.87865e-04
1
# CELL(abcABC):  188.97261   188.97261   188.97261    90.00000    90.00000    90.00000  Step:         245  Bead:       0 kinetic_cv{atomic_unit}  cell{atomic_unit}
       H  6.21141e-04  7.39708e-04  4.84706e-04
1
# CELL(abcABC):  188.97261   188.97261   188.97261    90.00000    90.00000    90.00000  Step:         250  Bead:       0 kinetic_cv{atomic_unit}  cell{atomic_unit}
       H  7.47286e-04  6.41995e-04  4.81889e-04
1
# CELL(abcABC):  188.97261   188.97261   188.97261    90.00000    90.00000    90.00000  Step:         255  Bead:       0 kinetic_cv{atomic_unit}  cell{atomic_unit}
       H  7.73366e-04  6.53555e-04  4.99630e-04
1
# CELL(abcABC):  188.97261   188.97261   188.97261    90.00000    90.00000    90.00000  Step:         260  Bead:       0 kinetic_cv{atomic_unit}  cell{atomic_unit}
       H  5.76245e-04  5.89335e-04  5.14332e-04
1
# CELL(abcABC):  188.97261   188.97261   188.97261    90.00000    90.00000    90.00000  Step:         265  Bead:       0 kinetic_cv{atomic_unit}  cell{atomic_unit}
       H  6.38031e-04  7.74828e-04  5.16956e-04
1
# CELL(abcABC):  188.97261   188.97261   188.97261    90.00000    90.00000    90.00000  Step:         270  Bead:       0 kinetic_cv{atomic_unit}  cell{atomic_unit}
       H  5.67241e-04  8.47348e-04  5.00730e-04
1
# CELL(abcABC):  188.97261   188.97261   188.97261    90.00000    90.00000    90.00000  Step:         275  Bead:       0 kinetic_cv{atomic_unit}  cell{atomic_unit}
       H  6.13946e-04  6.39160e-04  4.84115e-04
1
# CELL(abcABC):  188.97261   188.97261   188.97261    90.00000    90.00000    90.00000  Step:         280  Bead:       0 kinetic_cv{atomic_unit}  cell{atomic_unit}
       H  6.38685e-04  6.10208e-04  4.91408e-04
1
# CELL(abcABC):  188.97261   188.97261   188.97261    90.00000    90.00000    90.00000  Step:         285  Bead:       0 kinetic_cv{atomic_unit}  cell{atomic_unit}
       H  6.02570e-04  5.97978e-04  4.87260e-04
1
# CELL(abcABC):  188.97261   188.97261   188.97261    90.00000    90.00000    90.00000  Step:         290  Bead:       0 kinetic_cv{atomic_unit}  cell{atomic_unit}
       H  5.71305e-04  7.46528e-04  4.86731e-04
1
# CELL(abcABC):  188.97261   188.97261   188.97261    90.00000    90.00000    90.00000  Step:         295  Bead:       0 kinetic_cv{atomic_unit}  cell{atomic_unit}
       H  5.45154e-04  1.02070e-03  4.97052e-04
1
# CELL(abcABC):  188.97261   188.97261   188.97261    90.00000    90.00000    90.00000  Step:         300  Bead:       0 kinetic_cv{atomic_unit}  cell{atomic_unit}
       H  5.92036e-04  1.01126e-03  4.90454e-04
1
# CELL(abcABC):  188.97261   188.97261   188.97261    90.00000    90.00000    90.00000  Step:         305  Bead:       0 kinetic_cv{atomic_unit}  cell{atomic_unit}
       H  6.07092e-04  5.93098e-04  4.88409e-04
1
# CELL(abcABC):  188.97261   188.97261   188.97261    90.00000    90.00000    90.00000  Step:         310  Bead:       0 kinetic_cv{atomic_unit}  cell{atomic_unit}
       H  6.15962e-04  5.39240e-04  4.86985e-04
1
# CELL(abcABC):  188.97261   188.97261   188.97261    90.00000    90.00000    90.00000  Step:         315  Bead:       0 kinetic_cv{atomic_unit}  cell{atomic_unit}
       H  5.72376e-04  6.14382e-04  4.86359e-04
1
# CELL(abcABC):  188.97261   188.97261   188.97261    90.00000    90.00000    90.00000  Step:         320  Bead:       0 kinetic_cv{atomic_unit}  cell{atomic_unit}
       H  6.28862e-04  6.98900e-04  4.99333e-04
1
# CELL(abcABC):  188.97261   188.97261   188.97261    90.00000    90.00000    90.00000  Step:         325  Bead:       0 kinetic_cv{atomic_unit}  cell{atomic_unit}
       H  7.24667e-04  8.42959e-04  4.96839e-04
1
# CELL(abcABC):  188.97261   188.97261   188.97261    90.00000    90.00000    90.00000  Step:         330  Bead:       0 kinetic_cv{atomic_unit}  cell{atomic_unit}
       H  6.50590e-04  9.06809e-04  4.98920e-04
1
# CELL(abcABC):  188.97261   188.97261   188.97261    90.00000    90.00000    90.00000  Step:         335  Bead:       0 kinetic_cv{atomic_unit}  cell{atomic_unit}
       H  6.01915e-04  7.07030e-04  4.89102e-04
1
# CELL(abcABC):  188.97261   188.97261   188.97261    90.00000    90.00000    90.00000  Step:         340  Bead:       0 kinetic_cv{atomic_unit}  cell{atomic_unit}
       H  6.00179e-04  7.11386e-04  4.88049e-04
1
# CELL(abcABC):  188.97261   188.97261   188.97261    90.00000    90.00000    90.00000  Step:         345  Bead:       0 kinetic_cv{atomic_unit}  cell{atomic_unit}
       H  6.43277e-04  7.27205e-04  4.95705e-04
1
# CELL(abcABC):  188.97261   188.97261   188.97261    90.00000    90.00000    90.00000  Step:         350  Bead:       0 kinetic_cv{atomic_unit}  cell{atomic_unit}
       H  5.23726e-04  7.95924e-04  5.05454e-04
1
# CELL(abcABC):  188.97261   188.97261   188.97261    90.00000    90.00000    90.00000  Step:         355  Bead:       0 kinetic_cv{atomic_unit}  cell{atomic_unit}
       H  7.46786e-04  6.47681e-04  4.99357e-04
1
# CELL(abcABC):  188.97261   188.97261   188.97261    90.00000    90.00000    90.00000  Step:         360  Bead:       0 kinetic_cv{atomic_unit}  cell{atomic_unit}
       H  7.03981e-04  6.88256e-04  5.20771e-04
1
# CELL(abcABC):  188.97261   188.97261   188.97261    90.00000    90.00000    90.00000  Step:         365  Bead:       0 kinetic_cv{atomic_unit}  cell{atomic_unit}
       H  6.72932e-04  6.07229e-04  4.94907e-04
1
# CELL(abcABC):  188.97261   188.97261   188.97261    90.00000    90.00000    90.00000  Step:         370  Bead:       0 kinetic_cv{atomic_unit}  cell{atomic_unit}
       H  7.30967e-04  6.34033e-04  5.14076e-04
1
# CELL(abcABC):  188.97261   188.97261   188.97261    90.00000    90.00000    90.00000  Step:         375  Bead:       0 kinetic_cv{atomic_unit}  cell{atomic_unit}
       H  6.60387e-04  6.62244e-04  5.15969e-04
1
# CELL(abcABC):  188.97261   188.97261   188.97261    90.00000    90.00000    90.00000  Step:         380  Bead:       0 kinetic_cv{atomic_unit}  cell{atomic_unit}
       H  8.85349e-04  6.76416e-04  5.10795e-04
1
# CELL(abcABC):  188.97261   188.97261   188.97261    90.00000    90.00000    90.00000  Step:         385  Bead:       0 kinetic_cv{atomic_unit}  cell{atomic_unit}
       H  7.81816e-04  5.38846e-04  5.20296e-04
1
# CELL(abcABC):  188.97261   188.97261   188.97261    90.00000    90.00000    90.00000  Step:         390  Bead:       0 kinetic_cv{atomic_unit}  cell{atomic_unit}
       H  7.16756e-04  7.63353e-04  5.37654e-04
1
# CELL(abcABC):  188.97261   188.97261   188.97261    90.00000    90.00000    90.00000  Step:         395  Bead:       0 kinetic_cv{atomic_unit}  cell{atomic_unit}
       H  5.46223e-04  5.85576e-04  5.01907e-04
1
# CELL(abcABC):  188.97261   188.97261   188.97261    90.00000    90.00000    90.00000  Step:         400  Bead:       0 kinetic_cv{atomic_unit}  cell{atomic_unit}
       H  8.79251e-04  6.93089e-04  5.47055e-04
1
# CELL(abcABC):  188.97261   188.97261   188.97261    90.00000    90.00000    90.00000  Step:         405  Bead:       0 kinetic_cv{atomic_unit}  cell{atomic_unit}
       H  7.23908e-04  7.98580e-04  5.72013e-04
1
# CELL(abcABC):  188.97261   188.97261   188.97261    90.00000    90.00000    90.00000  Step:         410  Bead:       0 kinetic_cv{atomic_unit}  cell{atomic_unit}
       H  5.48207e-04  7.53864e-04  5.43729e-04
1
# CELL(abcABC):  188.97261   188.97261   188.97261    90.00000    90.00000    90.00000  Step:         415  Bead:       0 kinetic_cv{atomic_unit}  cell{atomic_unit}
       H  5.64465e-04  7.37702e-04  5.38816e-04
1
# CELL(abcABC):  188.97261   188.97261   188.97261    90.00000    90.00000    90.00000  Step:         420  Bead:       0 kinetic_cv{atomic_unit}  cell{atomic_unit}
       H  6.30205e-04  5.78038e-04  5.59154e-04
1
# CELL(abcABC):  188.97261   188.97261   188.97261    90.00000    90.00000    90.00000  Step:         425  Bead:       0 kinetic_cv{atomic_unit}  cell{atomic_unit}
       H  6.34850e-04  5.22750e-04  5.07208e-04
1
# CELL(abcABC):  188.97261   188.97261   188.97261    90.00000    90.00000    90.00000  Step:         430  Bead:       0 kinetic_cv{atomic_unit}  cell{atomic_unit}
       H  5.80525e-04  6.02703e-04  6.15859e-04
1
# CELL(abcABC):  188.97261   188.97261   188.97261    90.00000    90.00000    90.00000  Step:         435  Bead:       0 kinetic_cv{atomic_unit}  cell{atomic_unit}
       H  5.65691e-04  5.82768e-04  6.17085e-04
1
# CELL(abcABC):  188.97261   188.97261   188.97261    90.00000    90.00000    90.00000  Step:         440  Bead:       0 kinetic_cv{atomic_unit}  cell{atomic_unit}
       H  6.41863e-04  6.78325e-04  5.53297e-04
1
# CELL(abcABC):  188.97261   188.97261   188.97261    90.00000    90.00000    90.00000  Step:         445  Bead:       0 kinetic_cv{atomic_unit}  cell{atomic_unit}
       H  6.93192e-04  6.19167e-04  5.22694e-04
1
# CELL(abcABC):  188.97261   188.97261   188.97261    90.00000    90.00000    90.00000  Step:         450  Bead:       0 kinetic_cv{atomic_unit}  cell{atomic_unit}
       H  6.96383e-04  7.56105e-04  5.04771e-04
1
# CELL(abcABC):  188.97261   188.97261   188.97261    90.00000    90.00000    90.00000  Step:         455  Bead:       0 kinetic_cv{atomic_unit}  cell{atomic_unit}
       H  7.40825e-04  9.16866e-04  5.67908e-04
1
# CELL(abcABC):  188.97261   188.97261   188.97261    90.00000    90.00000    90.00000  Step:         460  Bead:       0 kinetic_cv{atomic_unit}  cell{atomic_unit}
       H  7.17587e-04  5.70157e-04  5.04416e-04
1
# CELL(abcABC):  188.97261   188.97261   188.97261    90.00000    90.00000    90.00000  Step:         465  Bead:       0 kinetic_cv{atomic_unit}  cell{atomic_unit}
       H  1.03348e-03  5.79522e-04  5.13147e-04
1
# CELL(abcABC):  188.97261   188.97261   188.97261    90.00000    90.00000    90.00000  Step:         470  Bead:       0 kinetic_cv{atomic_unit}  cell{atomic_unit}
       H  6.36062e-04  8.95075e-04  5.02766e-04
1
# CELL(abcABC):  188.97261   188.97261   188.97261    90.00000    90.00000    90.00000  Step:         475  Bead:       0 kinetic_cv{atomic_unit}  cell{atomic_unit}
       H  6.52488e-04  8.58880e-04  4.93360e-04
1
# CELL(abcABC):  188.97261   188.97261   188.97261    90.00000    90.00000    90.00000  Step:         480  Bead:       0 kinetic_cv{atomic_unit}  cell{atomic_unit}
       H  7.34158e-04  6.79265e-04  5.09739e-04
1
# CELL(abcABC):  188.97261   188.97261   188.97261    90.00000    90.00000    90.00000  Step:         485  Bead:       0 kinetic_cv{atomic_unit}  cell{atomic_unit}
       H  8.91749e-04  7.09378e-04  4.91534e-04
1
# CELL(abcABC):  188.97261   188.97261   188.97261    90.00000    90.00000    90.00000  Step:         490  Bead:       0 kinetic_cv{atomic_unit}  cell{atomic_unit}
       H  6.29651e-04  9.81180e-04  4.95788e-04
1
# CELL(abcABC):  188.97261   188.97261   188.97261    90.00000    90.00000    90.00000  Step:         495  Bead:       0 kinetic_cv{atomic_unit}  cell{atomic_unit}
       H  6.07654e-04  5.91712e-04  4.90782e-04
1
# CELL(abcABC):  188.97261   188.97261   188.97261    90.00000    90.00000    90.00000  Step:         500  Bead:       0 kinetic_cv{atomic_unit}  cell{atomic_unit}
       H  5.77356e-04  5.44736e-04  4.86281e-04
1
# CELL(abcABC):  188.97261   188.97261   188.97261    90.00000    90.00000    90.00000  Step:         505  Bead:       0 kinetic_cv{atomic_unit}  cell{atomic_unit}
       H  6.77723e-04  6.97536e-04  4.84207e-04
1
# CELL(abcABC):  188.97261   188.97261   188.97261    90.00000    90.00000    90.00000  Step:         510  Bead:       0 kinetic_cv{atomic_unit}  cell{atomic_unit}
       H  6.45625e-04  8.97187e-04  4.81158e-04
1
# CELL(abcABC):  188.97261   188.97261   188.97261    90.00000    90.00000    90.00000  Step:         515  Bead:       0 kinetic_cv{atomic_unit}  cell{atomic_unit}
       H  6.56611e-04  6.47574e-04  4.84712e-04
1
# CELL(abcABC):  188.97261   188.97261   188.97261    90.00000    90.00000    90.00000  Step:         520  Bead:       0 kinetic_cv{atomic_unit}  cell{atomic_unit}
       H  8.13379e-04  5.80422e-04  4.90906e-04
1
# CELL(abcABC):  188.97261   188.97261   188.97261    90.00000    90.00000    90.00000  Step:         525  Bead:       0 kinetic_cv{atomic_unit}  cell{atomic_unit}
       H  7.72081e-04  7.61405e-04  5.16146e-04
1
# CELL(abcABC):  188.97261   188.97261   188.97261    90.00000    90.00000    90.00000  Step:         530  Bead:       0 kinetic_cv{atomic_unit}  cell{atomic_unit}
       H  7.80529e-04  6.47644e-04  5.37731e-04
1
# CELL(abcABC):  188.97261   188.97261   188.97261    90.00000    90.00000    90.00000  Step:         535  Bead:       0 kinetic_cv{atomic_unit}  cell{atomic_unit}
       H  6.86663e-04  6.92403e-04  5.85852e-04
1
# CELL(abcABC):  188.97261   188.97261   188.97261    90.00000    90.00000    90.00000  Step:         540  Bead:       0 kinetic_cv{atomic_unit}  cell{atomic_unit}
       H  6.01578e-04  7.38207e-04  5.48008e-04
1
# CELL(abcABC):  188.97261   188.97261   188.97261    90.00000    90.00000    90.00000  Step:         545  Bead:       0 kinetic_cv{atomic_unit}  cell{atomic_unit}
       H  6.21730e-04  6.98936e-04  4.94009e-04
1
# CELL(abcABC):  188.97261   188.97261   188.97261    90.00000    90.00000    90.00000  Step:         550  Bead:       0 kinetic_cv{atomic_unit}  cell{atomic_unit}
       H  5.89351e-04  7.53599e-04  4.81362e-04
1
# CELL(abcABC):  188.97261   188.97261   188.97261    90.00000    90.00000    90.00000  Step:         555  Bead:       0 kinetic_cv{atomic_unit}  cell{atomic_unit}
       H  6.15284e-04  6.21115e-04  5.03072e-04
1
# CELL(abcABC):  188.97261   188.97261   188.97261    90.00000    90.00000    90.00000  Step:         560  Bead:       0 kinetic_cv{atomic_unit}  cell{atomic_unit}
       H  5.70115e-04  7.20224e-04  4.96006e-04
1
# CELL(abcABC):  188.97261   188.97261   188.97261    90.00000    90.00000    90.00000  Step:         565  Bead:       0 kinetic_cv{atomic_unit}  cell{atomic_unit}
       H  5.42874e-04  5.50520e-04  4.88750e-04
1
# CELL(abcABC):  188.97261   188.97261   188.97261    90.00000    90.00000    90.00000  Step:         570  Bead:       0 kinetic_cv{atomic_unit}  cell{atomic_unit}
       H  5.40949e-04  6.70552e-04  4.86371e-04
1
# CELL(abcABC):  188.97261   188.97261   188.97261    90.00000    90.00000    90.00000  Step:         575  Bead:       0 kinetic_cv{atomic_unit}  cell{atomic_unit}
       H  5.35396e-04  6.53364e-04  4.84189e-04
1
# CELL(abcABC):  188.97261   188.97261   188.97261    90.00000    90.00000    90.00000  Step:         580  Bead:       0 kinetic_cv{atomic_unit}  cell{atomic_unit}
       H  6.41722e-04  6.04134e-04  5.00550e-04
1
# CELL(abcABC):  188.97261   188.97261   188.97261    90.00000    90.00000    90.00000  Step:         585  Bead:       0 kinetic_cv{atomic_unit}  cell{atomic_unit}
       H  6.67653e-04  8.55157e-04  4.86985e-04
1
# CELL(abcABC):  188.97261   188.97261   188.97261    90.00000    90.00000    90.00000  Step:         590  Bead:       0 kinetic_cv{atomic_unit}  cell{atomic_unit}
       H  7.09145e-04  6.96184e-04  5.10025e-04
1
# CELL(abcABC):  188.97261   188.97261   188.97261    90.00000    90.00000    90.00000  Step:         595  Bead:       0 kinetic_cv{atomic_unit}  cell{atomic_unit}
       H  5.35442e-04  5.74625e-04  5.15931e-04
1
# CELL(abcABC):  188.97261   188.97261   188.97261    90.00000    90.00000    90.00000  Step:         600  Bead:       0 kinetic_cv{atomic_unit}  cell{atomic_unit}
       H  7.86318e-04  5.68867e-04  5.21165e-04
1
# CELL(abcABC):  188.97261   188.97261   188.97261    90.00000    90.00000    90.00000  Step:         605  Bead:       0 kinetic_cv{atomic_unit}  cell{atomic_unit}
       H  1.01426e-03  6.11003e-04  6.29596e-04
1
# CELL(abcABC):  188.97261   188.97261   188.97261    90.00000    90.00000    90.00000  Step:         610  Bead:       0 kinetic_cv{atomic_unit}  cell{atomic_unit}
       H  8.79071e-04  6.65722e-04  5.45104e-04
1
# CELL(abcABC):  188.97261   188.97261   188.97261    90.00000    90.00000    90.00000  Step:         615  Bead:       0 kinetic_cv{atomic_unit}  cell{atomic_unit}
       H  5.31842e-04  5.54650e-04  6.12334e-04
1
# CELL(abcABC):  188.97261   188.97261   188.97261    90.00000    90.00000    90.00000  Step:         620  Bead:       0 kinetic_cv{atomic_unit}  cell{atomic_unit}
       H  5.30057e-04  6.35602e-04  5.37422e-04
1
# CELL(abcABC):  188.97261   188.97261   188.97261    90.00000    90.00000    90.00000  Step:         625  Bead:       0 kinetic_cv{atomic_unit}  cell{atomic_unit}
       H  5.97842e-04  6.82394e-04  5.40484e-04
1
# CELL(abcABC):  188.97261   188.97261   188.97261    90.00000    90.00000    90.00000  Step:         630  Bead:       0 kinetic_cv{atomic_unit}  cell{atomic_unit}
       H  7.48540e-04  5.49593e-04  6.45993e-04
1
# CELL(abcABC):  188.97261   188.97261   188.97261    90.00000    90.00000    90.00000  Step:         635  Bead:       0 kinetic_cv{atomic_unit}  cell{atomic_unit}
       H  8.00656e-04  6.50408e-04  6.99685e-04
1
# CELL(abcABC):  188.97261   188.97261   188.97261    90.00000    90.00000    90.00000  Step:         640  Bead:       0 kinetic_cv{atomic_unit}  cell{atomic_unit}
       H  5.30563e-04  7.25781e-04  5.00579e-04
1
# CELL(abcABC):  188.97261   188.97261   188.97261    90.00000    90.00000    90.00000  Step:         645  Bead:       0 kinetic_cv{atomic_unit}  cell{atomic_unit}
       H  7.55088e-04  5.76487e-04  5.52875e-04
1
# CELL(abcABC):  188.97261   188.97261   188.97261    90.00000    90.00000    90.00000  Step:         650  Bead:       0 kinetic_cv{atomic_unit}  cell{atomic_unit}
       H  5.96882e-04  5.53829e-04  4.89795e-04
1
# CELL(abcABC):  188.97261   188.97261   188.97261    90.00000    90.00000    90.00000  Step:         655  Bead:       0 kinetic_cv{atomic_unit}  cell{atomic_unit}
       H  5.26629e-04  5.70455e-04  5.04376e-04
1
# CELL(abcABC):  188.97261   188.97261   188.97261    90.00000    90.00000    90.00000  Step:         660  Bead:       0 kinetic_cv{atomic_unit}  cell{atomic_unit}
       H  5.31398e-04  5.98017e-04  5.17514e-04
1
# CELL(abcABC):  188.97261   188.97261   188.97261    90.00000    90.00000    90.00000  Step:         665  Bead:       0 kinetic_cv{atomic_unit}  cell{atomic_unit}
       H  6.23981e-04  5.39068e-04  4.92245e-04
1
# CELL(abcABC):  188.97261   188.97261   188.97261    90.00000    90.00000    90.00000  Step:         670  Bead:       0 kinetic_cv{atomic_unit}  cell{atomic_unit}
       H  8.53637e-04  7.93818e-04  5.14117e-04
1
# CELL(abcABC):  188.97261   188.97261   188.97261    90.00000    90.00000    90.00000  Step:         675  Bead:       0 kinetic_cv{atomic_unit}  cell{atomic_unit}
       H  5.67660e-04  1.03676e-03  5.13573e-04
1
# CELL(abcABC):  188.97261   188.97261   188.97261    90.00000    90.00000    90.00000  Step:         680  Bead:       0 kinetic_cv{atomic_unit}  cell{atomic_unit}
       H  6.73316e-04  7.47290e-04  5.28968e-04
1
# CELL(abcABC):  188.97261   188.97261   188.97261    90.00000    90.00000    90.00000  Step:         685  Bead:       0 kinetic_cv{atomic_unit}  cell{atomic_unit}
       H  6.57940e-04  6.40979e-04  5.32621e-04
1
# CELL(abcABC):  188.97261   188.97261   188.97261    90.00000    90.00000    90.00000  Step:         690  Bead:       0 kinetic_cv{atomic_unit}  cell{atomic_unit}
       H  5.40333e-04  5.85266e-04  4.84938e-04
1
# CELL(abcABC):  188.97261   188.97261   188.97261    90.00000    90.00000    90.00000  Step:         695  Bead:       0 kinetic_cv{atomic_unit}  cell{atomic_unit}
       H  6.49800e-04  5.64143e-04  4.85982e-04
1